/*--------------------------------*- C++ -*----------------------------------*\
| =========                 |                                                 |
| \\      /  F ield         | OpenFOAM: The Open Source CFD Toolbox           |
|  \\    /   O peration     | Version:  2112                                  |
|   \\  /    A nd           | Website:  www.openfoam.com                      |
|    \\/     M anipulation  |                                                 |
\*---------------------------------------------------------------------------*/
FoamFile
{
    version     2.0;
    format      ascii;
    arch        "LSB;label=32;scalar=64";
    class       volScalarField;
    location    "0.33";
    object      nut;
}
// * * * * * * * * * * * * * * * * * * * * * * * * * * * * * * * * * * * * * //

dimensions      [0 2 -1 0 0 0 0];

internalField   nonuniform List<scalar> 
1880
(
3.41907e-11
3.38561e-12
7.09417e-13
5.62598e-14
1.16834e-14
1.95425e-13
1.67165e-14
1.69449e-14
9.07114e-15
3.4462e-14
5.48344e-14
1.12887e-13
4.77831e-14
7.65352e-14
2.45863e-13
4.29723e-14
1.04533e-13
5.66548e-15
1.91133e-13
5.5047e-13
6.24167e-13
4.81729e-12
2.06503e-13
1.85884e-12
1.7469e-12
3.6406e-12
9.40419e-11
2.59542e-11
6.94461e-10
1.18863e-09
4.13209e-09
5.50602e-09
2.89964e-09
5.86905e-11
1.58037e-10
1.36419e-11
1.70394e-11
1.03504e-11
8.9313e-14
6.25329e-12
2.72271e-13
1.1925e-11
2.10003e-12
2.81543e-12
6.06935e-12
5.08076e-12
1.71139e-11
1.89545e-11
1.40553e-10
1.19368e-10
5.20118e-10
1.62602e-10
3.40649e-10
5.95222e-10
5.37458e-11
9.43973e-10
9.01765e-10
7.53289e-10
3.85856e-09
8.94661e-09
1.9661e-09
2.69047e-09
1.21147e-09
3.84195e-10
4.91755e-10
1.07319e-09
2.46802e-09
1.27574e-09
2.09755e-09
9.13474e-10
3.64645e-11
2.92578e-09
2.15085e-10
6.57686e-11
3.47872e-09
3.10362e-12
3.07564e-09
9.72613e-10
3.45669e-13
6.20616e-09
1.78642e-10
3.01113e-09
6.92336e-09
1.58504e-09
5.4644e-09
1.26973e-08
1.92039e-09
1.62384e-08
3.40246e-08
8.72403e-09
2.39899e-10
2.56249e-09
2.54989e-10
2.9348e-09
3.21762e-10
1.00116e-09
3.92765e-09
2.37127e-09
1.45432e-08
2.93076e-09
6.87073e-09
3.26937e-10
1.6988e-08
6.9762e-10
2.47008e-08
7.81512e-09
6.29545e-09
6.04746e-09
1.02164e-08
7.98438e-09
6.954e-09
7.31726e-09
4.14114e-09
7.6598e-09
1.0845e-08
1.69816e-08
1.63978e-08
1.98844e-08
3.12754e-08
3.53921e-08
2.13173e-10
5.0684e-10
2.45546e-09
1.90267e-10
2.55498e-09
9.29805e-10
3.57169e-09
2.29922e-09
6.41744e-09
2.8208e-09
2.20044e-09
6.92736e-11
2.23929e-09
1.34907e-09
2.88277e-08
5.47241e-09
1.86072e-08
4.22052e-09
4.05075e-09
7.17416e-09
1.6116e-09
6.87453e-09
1.61087e-09
7.91366e-09
6.16034e-09
1.51323e-08
1.07743e-08
1.91654e-08
2.36457e-08
2.64997e-08
4.39613e-11
9.24475e-11
7.41483e-10
1.60043e-09
7.98697e-10
2.60168e-09
7.47858e-10
4.26219e-09
2.68184e-09
2.04528e-09
4.90982e-10
2.22208e-09
5.96277e-10
2.27255e-10
3.28526e-10
1.4617e-09
9.284e-11
2.97163e-09
1.50454e-09
2.90451e-09
4.30913e-09
6.50152e-09
6.15808e-09
9.03747e-09
1.0093e-08
1.20217e-08
1.39534e-08
1.69363e-08
2.29367e-08
2.28197e-08
1.02035e-10
3.03394e-10
2.36471e-09
1.29999e-09
3.28003e-09
1.73009e-09
3.47646e-09
3.16578e-09
4.94917e-09
9.62723e-10
1.40284e-09
5.4147e-10
9.78867e-10
8.50169e-10
1.58414e-09
2.1174e-09
1.89778e-09
2.23095e-09
2.75858e-09
3.44369e-09
5.36448e-09
5.38933e-09
7.23574e-09
7.3438e-09
9.3651e-09
1.11526e-08
1.28722e-08
1.42864e-08
1.92252e-08
2.05845e-08
5.64133e-11
1.26546e-10
1.61805e-09
1.64448e-09
1.99495e-09
1.87158e-09
1.85596e-09
3.31035e-09
2.8812e-09
1.18336e-09
1.93832e-09
4.68429e-10
2.35227e-09
1.86691e-09
2.19683e-09
2.18651e-09
4.29002e-09
4.66994e-09
4.41967e-09
4.16632e-09
6.57689e-09
6.73048e-09
8.25878e-09
8.65172e-09
1.05858e-08
1.13317e-08
1.37341e-08
1.43848e-08
1.88721e-08
1.8701e-08
8.72754e-11
1.51682e-10
1.75095e-09
1.76701e-09
2.11648e-09
1.56816e-09
1.89887e-09
2.53458e-09
2.38591e-09
1.51912e-09
2.21634e-09
1.82283e-09
2.22213e-09
1.90104e-09
2.99409e-09
2.29796e-09
5.15656e-09
5.25663e-09
4.77617e-09
4.72798e-09
6.41608e-09
5.97854e-09
7.96545e-09
8.13474e-09
9.96892e-09
1.09559e-08
1.29596e-08
1.35394e-08
1.68826e-08
1.81094e-08
8.83272e-11
8.64089e-11
1.48359e-09
1.69615e-09
1.7488e-09
1.50251e-09
1.73278e-09
2.40701e-09
2.3344e-09
1.80992e-09
2.58097e-09
1.948e-09
2.96394e-09
3.05529e-09
3.43601e-09
3.14499e-09
5.42599e-09
5.25027e-09
5.01721e-09
5.00896e-09
6.61503e-09
6.681e-09
8.1902e-09
8.48027e-09
1.01322e-08
1.07038e-08
1.27367e-08
1.32633e-08
1.61852e-08
1.68061e-08
1.38821e-10
2.5601e-10
1.31877e-09
1.67026e-09
1.51056e-09
1.56095e-09
1.66186e-09
2.34485e-09
1.91649e-09
2.20671e-09
3.10745e-09
2.37925e-09
2.93886e-09
3.42748e-09
3.64657e-09
3.60053e-09
5.03479e-09
5.27815e-09
4.91615e-09
5.18817e-09
6.3428e-09
6.66262e-09
8.03147e-09
8.59229e-09
9.79081e-09
1.04518e-08
1.20829e-08
1.28726e-08
1.5033e-08
1.61204e-08
1.93317e-10
5.12314e-10
1.2477e-09
1.54206e-09
1.57592e-09
1.69731e-09
1.89567e-09
2.33618e-09
2.31533e-09
2.48571e-09
3.08832e-09
2.70416e-09
3.5094e-09
3.65423e-09
3.93522e-09
3.6994e-09
5.06875e-09
4.95838e-09
5.22758e-09
5.50707e-09
6.5764e-09
6.94304e-09
8.17902e-09
8.55637e-09
9.74113e-09
1.02464e-08
1.1795e-08
1.25541e-08
1.44843e-08
1.53361e-08
2.19251e-11
5.44821e-10
9.69522e-10
1.52154e-09
1.46238e-09
1.77038e-09
2.06076e-09
2.40004e-09
2.13713e-09
2.57631e-09
3.43305e-09
2.74119e-09
3.28064e-09
4.04666e-09
3.9718e-09
3.98332e-09
4.57009e-09
5.1394e-09
5.52509e-09
5.67832e-09
6.53544e-09
7.18889e-09
8.09669e-09
8.71567e-09
9.4332e-09
1.01188e-08
1.13442e-08
1.22205e-08
1.36527e-08
1.46159e-08
2.56701e-13
5.36471e-10
1.04649e-09
1.38749e-09
1.60906e-09
1.97493e-09
2.14381e-09
2.42189e-09
2.39669e-09
2.78058e-09
3.34151e-09
3.05379e-09
3.63463e-09
3.98601e-09
4.17857e-09
4.24138e-09
4.89775e-09
5.21352e-09
5.68042e-09
5.96742e-09
6.83143e-09
7.31114e-09
8.24998e-09
8.73428e-09
9.50662e-09
1.01267e-08
1.11953e-08
1.19996e-08
1.3308e-08
1.41404e-08
6.27432e-13
2.40319e-10
4.29256e-10
1.26642e-09
1.43514e-09
1.64578e-09
2.32658e-09
2.27159e-09
2.02313e-09
2.56475e-09
3.38857e-09
2.87455e-09
3.21473e-09
4.1135e-09
4.16461e-09
4.24316e-09
4.61462e-09
5.38189e-09
5.8797e-09
5.8676e-09
6.66015e-09
7.46699e-09
8.18259e-09
8.81028e-09
9.31563e-09
9.95661e-09
1.0821e-08
1.15318e-08
1.24594e-08
1.33074e-08
3.33144e-11
9.24801e-10
1.21976e-09
1.41188e-09
1.54307e-09
1.90883e-09
1.99112e-09
2.24721e-09
2.40841e-09
2.77117e-09
3.09227e-09
3.13382e-09
3.4046e-09
3.9871e-09
4.10818e-09
4.477e-09
4.81121e-09
5.46874e-09
5.79693e-09
6.0954e-09
6.84919e-09
7.451e-09
8.2053e-09
8.8679e-09
9.49556e-09
1.01523e-08
1.08388e-08
1.14338e-08
1.22573e-08
1.29661e-08
1.17624e-12
4.67577e-12
1.2596e-10
8.41212e-10
1.31113e-09
9.79008e-10
1.58947e-09
1.365e-09
1.30291e-09
2.01586e-09
2.82579e-09
2.51619e-09
2.77841e-09
3.97906e-09
3.90829e-09
4.20253e-09
4.63912e-09
5.59865e-09
5.7836e-09
5.91971e-09
6.53011e-09
7.36213e-09
7.99798e-09
8.6062e-09
9.20868e-09
9.79318e-09
1.03786e-08
1.07678e-08
1.11594e-08
1.17728e-08
1.96079e-09
2.62854e-09
1.54597e-09
1.59437e-09
1.97923e-09
2.44578e-09
2.88235e-09
3.60357e-09
3.45598e-09
2.70562e-09
1.64923e-09
1.60354e-09
6.15192e-10
3.48553e-10
9.24473e-11
1.09437e-10
1.4749e-11
1.23397e-11
3.17004e-12
6.2358e-12
8.7115e-12
1.94561e-13
9.58873e-16
8.70135e-13
4.7551e-12
8.05727e-12
1.30683e-11
5.53646e-11
1.70213e-10
5.93268e-10
4.97324e-09
5.56232e-09
1.01211e-09
1.60801e-10
3.48784e-11
1.86487e-12
2.17171e-12
1.55088e-13
9.69262e-14
1.52779e-12
1.24394e-12
4.25634e-14
1.03419e-12
3.01161e-12
2.10575e-12
1.79066e-12
2.18675e-12
3.13854e-12
3.59112e-12
7.72627e-12
1.28661e-11
9.08645e-12
5.90185e-12
6.24177e-12
9.35676e-12
1.8082e-11
2.7049e-11
2.62848e-11
2.02133e-11
1.03482e-11
3.45035e-11
4.72974e-12
2.51057e-13
1.17305e-14
5.44665e-14
4.24024e-14
2.31243e-15
3.4074e-16
4.45862e-16
2.48274e-16
2.33432e-17
2.43307e-15
1.23312e-14
5.80381e-15
9.10525e-17
1.25101e-15
1.31723e-14
5.37021e-14
4.94201e-14
2.48705e-14
3.69356e-15
1.32036e-15
1.461e-14
1.32454e-13
4.44627e-13
6.76738e-13
5.0458e-13
2.34089e-13
6.05133e-14
2.43507e-15
1.28459e-09
4.37266e-10
3.89127e-10
3.74745e-11
1.09489e-10
1.42586e-10
7.10904e-11
2.2676e-10
5.74396e-10
2.76542e-09
1.2354e-08
9.79993e-09
1.60343e-08
1.17284e-08
6.35867e-09
2.24486e-08
4.74114e-09
1.03065e-08
1.4051e-08
6.23864e-08
3.23848e-08
6.1435e-08
2.85238e-08
2.82074e-08
3.74535e-08
7.29812e-08
5.03239e-08
7.29085e-08
1.90346e-08
3.08746e-08
4.48576e-08
2.99681e-08
4.58471e-08
3.83042e-08
3.89254e-08
3.58253e-08
5.4101e-09
5.28145e-08
4.78874e-08
4.19033e-08
3.74344e-08
3.46591e-08
3.28466e-08
3.41191e-08
3.50449e-08
4.50987e-08
4.10044e-08
3.45539e-08
2.85627e-08
4.18253e-08
3.72994e-08
2.69725e-08
3.28444e-08
3.07322e-08
3.01179e-08
3.71051e-08
3.58478e-08
3.9601e-08
4.03817e-08
4.41998e-08
2.91939e-08
2.61967e-08
2.7726e-08
2.83064e-08
2.88617e-08
3.2598e-08
3.53225e-08
3.40076e-08
3.45605e-08
3.84e-08
2.89899e-08
2.30452e-08
2.64679e-08
2.67325e-08
2.73808e-08
3.10514e-08
3.11932e-08
3.13807e-08
3.11307e-08
3.41898e-08
2.43766e-08
2.19566e-08
2.42671e-08
2.47301e-08
2.52258e-08
2.80766e-08
2.94149e-08
2.81509e-08
2.68815e-08
2.93586e-08
2.3258e-08
2.01968e-08
2.26464e-08
2.35062e-08
2.40534e-08
2.62035e-08
2.59378e-08
2.58314e-08
2.58024e-08
2.50832e-08
2.03751e-08
1.90877e-08
2.12179e-08
2.1948e-08
2.20564e-08
2.41259e-08
2.46664e-08
2.33525e-08
2.23156e-08
2.27405e-08
1.91629e-08
1.7874e-08
1.98061e-08
2.0771e-08
2.09288e-08
2.20218e-08
2.22351e-08
2.18705e-08
2.12028e-08
1.99472e-08
1.70898e-08
1.69105e-08
1.85651e-08
1.93946e-08
1.9517e-08
2.06121e-08
2.07023e-08
1.98322e-08
1.91348e-08
1.83822e-08
1.62672e-08
1.60024e-08
1.74257e-08
1.8251e-08
1.84523e-08
1.89762e-08
1.90176e-08
1.85333e-08
1.7872e-08
1.66799e-08
1.4606e-08
1.49921e-08
1.6237e-08
1.70527e-08
1.72913e-08
1.77907e-08
1.76716e-08
1.70994e-08
1.65016e-08
1.54769e-08
1.4127e-08
1.42158e-08
1.52292e-08
1.58866e-08
1.62326e-08
1.65438e-08
1.64909e-08
1.60645e-08
1.55118e-08
1.44698e-08
1.24447e-08
1.28324e-08
1.38777e-08
1.45252e-08
1.50891e-08
1.53097e-08
1.54502e-08
1.48419e-08
1.45129e-08
1.31419e-08
1.32966e-09
1.30045e-09
2.77331e-09
3.04755e-09
4.53276e-09
4.12283e-09
5.03448e-09
3.92178e-09
4.00057e-09
2.6554e-09
3.55449e-12
8.47106e-13
7.89614e-16
1.20675e-12
4.01767e-12
9.90996e-12
1.55136e-11
2.11288e-11
2.19988e-11
2.01243e-11
1.04642e-14
5.94193e-15
1.42903e-14
2.14831e-14
2.67167e-14
4.35803e-14
4.5931e-14
7.09561e-14
5.48062e-14
3.76182e-14
6.685e-08
6.75831e-09
2.97954e-08
4.71129e-08
3.07473e-08
1.38329e-08
3.05098e-09
6.62304e-10
1.94906e-10
1.46744e-10
1.1015e-10
3.3021e-10
7.80611e-10
3.88503e-09
1.29573e-08
6.4402e-08
1.33281e-07
3.926e-08
4.92554e-09
7.12889e-10
1.40019e-10
3.70084e-11
1.1786e-11
3.81876e-12
1.11706e-12
1.74702e-13
1.58863e-15
1.21825e-14
8.29111e-14
1.63704e-13
1.82608e-13
1.4813e-13
8.95801e-14
4.52024e-14
1.8042e-14
6.35295e-15
1.87976e-15
4.18635e-16
1.6935e-16
6.83438e-16
6.85715e-08
9.09225e-07
1.49081e-09
4.89322e-08
1.66247e-07
1.39299e-07
8.59939e-10
6.09777e-07
5.83373e-07
3.43974e-08
1.28367e-11
8.28304e-09
2.14813e-08
5.96166e-08
9.81647e-08
1.16869e-07
1.09671e-07
9.35008e-08
7.54079e-08
5.72392e-08
4.03453e-08
2.62475e-08
1.5083e-08
6.76379e-09
2.29215e-09
6.12525e-10
1.2682e-10
1.7282e-11
7.28072e-13
1.36753e-13
1.13532e-12
1.83714e-12
1.92007e-12
1.37087e-12
9.40205e-13
5.16122e-13
3.18033e-13
1.5086e-13
8.62001e-14
2.92424e-14
4.85577e-08
2.95072e-09
4.83756e-09
1.12186e-07
1.50651e-08
4.86887e-07
1.18945e-06
1.12541e-06
5.84609e-07
1.31272e-07
1.52561e-08
7.86533e-10
1.28661e-12
4.03331e-09
3.43009e-08
8.11912e-08
9.92946e-08
8.88957e-08
7.46466e-08
6.47895e-08
5.45264e-08
4.50653e-08
3.95467e-08
3.49657e-08
2.94439e-08
2.20116e-08
8.83111e-09
1.026e-09
1.43727e-11
5.35117e-12
3.02858e-11
2.89225e-11
1.67967e-11
6.44177e-12
2.6991e-12
9.70749e-13
6.11921e-13
3.00291e-13
2.55463e-13
1.43685e-13
4.94327e-08
6.35386e-09
1.49609e-07
1.51488e-07
1.76911e-09
4.3425e-07
1.13347e-06
1.25896e-06
7.55814e-07
2.19328e-07
3.11872e-08
6.3476e-09
4.62537e-09
4.55362e-10
3.12344e-09
4.11921e-08
9.16376e-08
9.50213e-08
7.20032e-08
5.9845e-08
5.39826e-08
4.2521e-08
3.09059e-08
2.29092e-08
8.46614e-09
1.53983e-09
7.87772e-10
1.93142e-09
6.34181e-09
5.97754e-10
3.60934e-10
8.24169e-10
4.67927e-10
9.35796e-11
1.06301e-11
3.83792e-13
6.12017e-14
3.33159e-14
1.96498e-14
8.23563e-13
3.10168e-08
4.14569e-08
1.38213e-07
1.09614e-07
2.57448e-08
1.07019e-06
1.89987e-06
1.83542e-06
1.25714e-06
4.61992e-07
6.4269e-08
1.24094e-08
1.42924e-08
1.21977e-08
3.91922e-12
1.05638e-08
6.14037e-08
9.71178e-08
7.78374e-08
5.09209e-08
4.29951e-08
2.84284e-08
1.82306e-08
1.37812e-08
1.62777e-09
2.68066e-08
3.51278e-09
3.29178e-10
1.47502e-12
6.83642e-11
7.47479e-10
2.46931e-09
1.43696e-09
3.52462e-09
7.80282e-10
9.39817e-12
6.61947e-12
1.83385e-11
7.71287e-12
1.29856e-12
2.23318e-06
9.15477e-08
1.12228e-07
6.06289e-08
1.12806e-08
3.89828e-07
1.13018e-06
1.44377e-06
1.23152e-06
6.86229e-07
1.58763e-07
2.36306e-08
1.37965e-08
2.61243e-08
7.6079e-10
1.05635e-08
4.85558e-08
7.96345e-08
5.87967e-08
4.55494e-08
3.22962e-08
2.20516e-08
2.39331e-09
4.11769e-10
5.50938e-09
6.86326e-09
5.86434e-08
3.96149e-10
6.19261e-12
1.23165e-10
3.42974e-10
5.74024e-10
8.2695e-10
9.7157e-10
1.05931e-09
9.12312e-10
2.07233e-10
1.07924e-10
1.19915e-10
6.99306e-11
4.5006e-08
1.64705e-07
2.03504e-07
2.28559e-07
1.10515e-08
1.9768e-07
1.73704e-06
2.20571e-06
1.98593e-06
1.42314e-06
6.31605e-07
1.83923e-07
6.64313e-08
1.88863e-08
1.9709e-10
2.78123e-08
7.41444e-08
7.42253e-08
4.36905e-08
4.78993e-09
1.47118e-08
2.30815e-08
1.32433e-08
1.32376e-09
3.63594e-09
1.25544e-08
1.19716e-09
7.21748e-11
3.91253e-09
1.12415e-08
6.83124e-09
3.71787e-09
2.18442e-09
1.2843e-09
7.18864e-10
3.62633e-10
1.19753e-10
2.74345e-11
1.29209e-12
1.69918e-10
2.37726e-08
1.96476e-08
9.52542e-09
5.89168e-08
5.45025e-08
7.62439e-09
1.70429e-07
1.48533e-06
1.78229e-06
1.57906e-06
9.06733e-07
3.61337e-07
2.14256e-07
2.92028e-08
4.03253e-09
6.714e-08
9.152e-08
7.64249e-08
5.98255e-08
4.33851e-08
2.65566e-08
2.60312e-08
2.56423e-08
2.39218e-08
2.19601e-08
2.2079e-08
8.44723e-09
3.63129e-11
5.70903e-11
2.32454e-12
2.70015e-10
3.872e-09
1.0433e-08
8.73732e-09
3.62568e-09
8.52145e-10
5.32058e-11
2.97865e-12
4.41992e-10
4.1586e-12
4.12465e-08
1.164e-08
1.24605e-09
4.92495e-09
1.71789e-08
4.77736e-08
5.76708e-07
1.43857e-06
1.59297e-06
1.44582e-06
1.06322e-06
6.03426e-07
2.85043e-07
8.7025e-10
6.4039e-08
5.42964e-08
6.01193e-08
5.47971e-08
5.20013e-08
3.76537e-08
3.12258e-08
3.19667e-08
3.02571e-08
2.69817e-08
2.21977e-08
1.68871e-08
1.38472e-08
1.2014e-08
6.72368e-09
1.0355e-09
6.64575e-11
5.16897e-11
1.82733e-10
9.99036e-10
3.2549e-09
5.57847e-09
3.76638e-09
6.57465e-10
9.03393e-12
2.2353e-11
3.01528e-08
2.39624e-08
1.26762e-08
2.10183e-08
2.85347e-08
8.89546e-08
9.25422e-07
1.45025e-06
1.36678e-06
1.23403e-06
8.96064e-07
1.32029e-07
3.30081e-09
7.61234e-08
9.64848e-08
4.90056e-08
2.25201e-08
4.41301e-08
3.30791e-08
3.65096e-08
3.70048e-08
2.96224e-08
2.34539e-08
2.47029e-08
2.49031e-08
1.64473e-08
3.01013e-09
1.02097e-09
5.5901e-10
1.93509e-09
3.24652e-09
1.00418e-08
3.66725e-08
3.77491e-09
2.63452e-09
2.77068e-09
3.0045e-09
2.89933e-09
2.51157e-09
4.38606e-10
1.69632e-08
4.97755e-08
3.54339e-08
1.82299e-09
4.24993e-09
1.36497e-10
1.46758e-08
5.92547e-07
5.58299e-07
3.00082e-09
2.49278e-08
5.79719e-08
8.52288e-08
6.67789e-08
6.78543e-08
6.30631e-08
3.99814e-08
3.75852e-08
3.36632e-08
3.0066e-08
6.40258e-10
9.80815e-11
1.75553e-08
1.33554e-08
9.25839e-09
9.58182e-10
1.21463e-10
1.03528e-08
1.37877e-08
7.77822e-09
7.16274e-09
2.83177e-09
7.69129e-10
4.89493e-10
7.46914e-10
1.87877e-09
9.1634e-10
1.03178e-09
2.81611e-09
1.5545e-09
3.70171e-08
4.76908e-08
3.69954e-08
4.76205e-08
4.16166e-08
4.68128e-08
5.89833e-08
4.52222e-08
3.65428e-08
6.65969e-08
6.33863e-08
6.93609e-08
7.47466e-08
6.58399e-08
4.83818e-08
4.86223e-08
4.49058e-08
4.04962e-08
2.0545e-08
3.21262e-08
2.95019e-08
8.59258e-09
1.0248e-08
1.18196e-08
1.02445e-08
2.37763e-09
1.54624e-07
1.51107e-07
4.50931e-09
5.59054e-11
1.07916e-09
6.60678e-10
1.27555e-09
6.87828e-09
5.42371e-11
1.7509e-09
5.36198e-09
4.78754e-09
1.32004e-09
4.38141e-13
2.31725e-08
2.25804e-08
2.61029e-08
4.1886e-08
3.84298e-08
3.96663e-08
5.42213e-08
5.91281e-08
6.20865e-08
6.58988e-08
5.82206e-08
5.29e-08
5.67026e-08
5.50653e-08
5.1514e-08
3.207e-08
3.48166e-08
4.22498e-08
3.30806e-08
2.60838e-08
2.13661e-08
1.05807e-08
1.57452e-08
2.00422e-08
1.82747e-08
1.86646e-08
1.5747e-08
1.21075e-08
1.31641e-08
1.05046e-08
8.19568e-10
1.55096e-10
6.78517e-11
1.2606e-10
5.60588e-10
1.64974e-09
3.20834e-09
4.10883e-09
3.83692e-09
1.22473e-09
3.18761e-08
2.81292e-08
2.8859e-08
4.21145e-08
3.77773e-08
3.65682e-08
4.35811e-08
4.63647e-08
4.63177e-08
5.03485e-08
5.07362e-08
4.12708e-08
4.2217e-08
4.86232e-08
4.81713e-08
4.09369e-08
2.84491e-08
2.71151e-08
2.74019e-08
2.39606e-08
2.12614e-08
1.8982e-08
2.11943e-08
1.92774e-08
5.33596e-09
3.46288e-09
1.39383e-08
2.06123e-09
1.58396e-09
2.57691e-08
3.69024e-10
7.52932e-09
2.49872e-08
5.90655e-08
6.61292e-08
7.89695e-09
9.76056e-11
1.07051e-09
1.67064e-09
8.6221e-10
2.4983e-08
2.32746e-08
2.96764e-08
3.71483e-08
3.80855e-08
3.64181e-08
3.80921e-08
3.92819e-08
3.71785e-08
4.21909e-08
4.1762e-08
4.02284e-08
3.32339e-08
3.71222e-08
3.64177e-08
3.43948e-08
3.63197e-08
2.62945e-08
1.90522e-08
2.44428e-08
2.3152e-08
9.4521e-09
4.66901e-10
1.38506e-08
8.52977e-09
8.19309e-09
7.28748e-09
3.27985e-10
1.88665e-09
8.47667e-09
6.10362e-09
5.712e-09
6.29306e-09
6.4437e-08
7.49581e-08
3.65292e-08
5.57951e-09
4.42736e-10
4.51762e-11
6.19417e-10
2.58094e-08
2.34557e-08
2.74087e-08
3.19177e-08
3.36549e-08
3.46305e-08
3.46376e-08
3.15107e-08
3.16138e-08
3.0248e-08
3.46988e-08
3.58356e-08
3.46073e-08
2.93191e-08
3.02612e-08
2.80281e-08
2.93956e-08
2.50226e-08
2.08254e-08
1.55395e-08
2.16279e-08
2.12836e-08
1.60343e-08
1.48767e-08
1.34294e-08
1.12534e-08
1.28746e-08
5.75022e-09
2.10227e-09
4.60547e-09
3.38247e-09
5.81305e-11
1.59478e-11
8.00757e-10
2.7691e-09
4.42731e-09
4.75982e-09
3.92731e-09
2.93006e-09
1.11495e-09
2.21e-08
2.13901e-08
2.39539e-08
2.77045e-08
2.83008e-08
2.91135e-08
2.8428e-08
2.80771e-08
2.82461e-08
2.82022e-08
2.53967e-08
3.09528e-08
3.00636e-08
2.71893e-08
2.75863e-08
2.87352e-08
2.2796e-08
2.1253e-08
2.58245e-08
2.42125e-08
1.67806e-08
1.66714e-08
1.52777e-08
1.51343e-08
9.31922e-09
1.84889e-09
7.35366e-09
7.02526e-09
1.09388e-10
2.51211e-10
2.34439e-09
3.83357e-09
3.33598e-08
3.5702e-08
1.88136e-08
6.70822e-09
4.31554e-09
5.75096e-09
9.63673e-10
5.51911e-10
2.17356e-08
1.99323e-08
2.12295e-08
2.40757e-08
2.45949e-08
2.43976e-08
2.45889e-08
2.37027e-08
2.30729e-08
2.37826e-08
2.57909e-08
2.1616e-08
2.4629e-08
2.66307e-08
2.25941e-08
2.14483e-08
2.36111e-08
2.21485e-08
1.73428e-08
1.88886e-08
1.64156e-08
1.58118e-08
1.24505e-08
1.39277e-08
1.35622e-08
7.95264e-09
6.41489e-09
6.74781e-09
5.27061e-09
6.05975e-09
7.0188e-09
5.66136e-09
3.64025e-09
2.61881e-09
2.64946e-09
3.10331e-09
3.15224e-09
2.51551e-09
2.04172e-09
9.34796e-10
1.89661e-08
1.8586e-08
1.92712e-08
2.02755e-08
2.13522e-08
2.1095e-08
2.01887e-08
2.05469e-08
2.09291e-08
1.99118e-08
2.12336e-08
2.19784e-08
1.96712e-08
2.0787e-08
2.17531e-08
2.03588e-08
1.886e-08
2.10307e-08
1.89459e-08
1.7229e-08
1.70396e-08
1.80001e-08
1.52862e-08
1.2398e-08
1.20738e-08
1.231e-08
1.17389e-08
9.46905e-09
6.34435e-09
3.61297e-09
2.35537e-09
3.04629e-09
4.46977e-09
5.16498e-09
5.05653e-09
4.26003e-09
3.19972e-09
2.13644e-09
1.27461e-09
6.87402e-10
1.77728e-08
1.69534e-08
1.7042e-08
1.79026e-08
1.78437e-08
1.80198e-08
1.80766e-08
1.69434e-08
1.74172e-08
1.83494e-08
1.73636e-08
1.82104e-08
1.92096e-08
1.76637e-08
1.7413e-08
1.95702e-08
1.82908e-08
1.67651e-08
1.79119e-08
1.83335e-08
1.59472e-08
1.40146e-08
1.42661e-08
1.44984e-08
1.3018e-08
1.00945e-08
7.5631e-09
6.692e-09
6.71216e-09
6.58239e-09
6.36301e-09
5.87577e-09
5.03985e-09
3.96231e-09
3.03503e-09
2.26089e-09
1.79202e-09
1.23647e-09
9.54994e-10
4.73539e-10
1.60164e-08
1.55722e-08
1.53868e-08
1.54456e-08
1.55955e-08
1.52392e-08
1.48522e-08
1.51719e-08
1.4833e-08
1.48616e-08
1.59947e-08
1.55975e-08
1.52891e-08
1.67244e-08
1.64564e-08
1.54881e-08
1.67687e-08
1.75868e-08
1.64565e-08
1.57216e-08
1.61466e-08
1.58128e-08
1.42039e-08
1.24762e-08
1.16824e-08
1.11837e-08
1.01608e-08
8.57923e-09
6.86724e-09
5.31983e-09
4.51748e-09
4.30681e-09
4.32404e-09
4.17654e-09
3.80038e-09
3.17394e-09
2.53364e-09
1.8513e-09
1.45351e-09
1.01661e-09
1.47417e-08
1.41433e-08
1.37114e-08
1.35583e-08
1.32697e-08
1.3057e-08
1.28419e-08
1.24721e-08
1.27437e-08
1.31073e-08
1.3055e-08
1.35779e-08
1.39142e-08
1.36035e-08
1.41928e-08
1.49101e-08
1.46502e-08
1.45991e-08
1.52549e-08
1.51715e-08
1.40382e-08
1.29498e-08
1.23886e-08
1.16772e-08
1.04649e-08
8.67182e-09
7.04251e-09
5.92614e-09
5.49926e-09
5.2323e-09
5.04201e-09
4.60711e-09
4.04547e-09
3.26183e-09
2.518e-09
1.7897e-09
1.26042e-09
8.27278e-10
6.07661e-10
3.43976e-10
1.36687e-08
1.30458e-08
1.24488e-08
1.19912e-08
1.16657e-08
1.1325e-08
1.10962e-08
1.11425e-08
1.12407e-08
1.15763e-08
1.20305e-08
1.20571e-08
1.20512e-08
1.20116e-08
1.13742e-08
1.05475e-08
1.00507e-08
9.08382e-09
7.56431e-09
6.22815e-09
5.37787e-09
4.45954e-09
3.41677e-09
2.41968e-09
1.84314e-09
1.57101e-09
1.50868e-09
1.44476e-09
1.38754e-09
1.17085e-09
9.98704e-10
8.16574e-10
7.57886e-10
6.43291e-10
6.23652e-10
5.04663e-10
5.15386e-10
3.95108e-10
4.39159e-10
3.6177e-10
1.24316e-08
1.18322e-08
1.11464e-08
1.0551e-08
1.00945e-08
9.81572e-09
9.59514e-09
9.4845e-09
9.46024e-09
9.23917e-09
8.61067e-09
7.43462e-09
5.51491e-09
3.31516e-09
1.56725e-09
4.63535e-10
3.76692e-11
5.86479e-13
2.32544e-11
7.13702e-11
1.53401e-10
2.46314e-10
2.29174e-10
1.48064e-10
7.18813e-11
2.7382e-11
7.9444e-12
2.30753e-12
1.74444e-13
1.70005e-13
5.65409e-12
1.73635e-11
2.90148e-11
2.95369e-11
2.53208e-11
1.83374e-11
1.24291e-11
8.07857e-12
4.89577e-12
2.31091e-12
2.3367e-09
2.02386e-09
1.84665e-09
1.80553e-09
1.83538e-09
1.91167e-09
1.94337e-09
1.90042e-09
1.76889e-09
1.52333e-09
1.14669e-09
6.87611e-10
3.09869e-10
8.8348e-11
5.20541e-12
3.28102e-12
5.73973e-11
1.56866e-10
2.51705e-10
3.13499e-10
3.01005e-10
2.17383e-10
1.26895e-10
7.35852e-11
4.30964e-11
2.1029e-11
5.92476e-12
7.33012e-13
1.84444e-14
1.95012e-13
6.5433e-13
8.66781e-13
1.02287e-12
9.06905e-13
1.13717e-12
9.67063e-13
1.3848e-12
1.02954e-12
1.31981e-12
7.6167e-13
1.87342e-11
1.62135e-11
1.84968e-11
2.40678e-11
3.08512e-11
3.80727e-11
4.48937e-11
5.14794e-11
5.37186e-11
4.79608e-11
3.87e-11
2.53467e-11
1.02806e-11
1.99295e-12
1.06859e-13
1.09449e-12
8.68981e-12
2.28984e-11
3.27485e-11
3.50425e-11
3.17415e-11
2.40259e-11
1.38365e-11
5.79231e-12
1.73614e-12
3.54668e-13
2.97578e-14
6.64339e-16
2.72767e-14
1.11121e-13
2.64982e-13
3.61414e-13
4.14484e-13
3.42282e-13
2.78559e-13
1.82176e-13
1.19818e-13
6.80309e-14
3.1181e-14
1.51998e-14
2.87285e-14
1.48324e-14
3.19407e-14
6.68126e-14
1.20712e-13
1.95108e-13
2.82755e-13
3.75846e-13
4.61136e-13
4.64909e-13
3.73823e-13
2.45476e-13
8.24305e-14
7.68896e-15
7.26249e-14
4.76464e-13
1.22324e-12
1.77468e-12
1.60029e-12
8.64388e-13
2.71425e-13
4.55041e-14
2.51903e-15
3.95046e-15
1.88596e-14
3.65753e-14
5.18872e-14
5.30967e-14
4.14084e-14
2.52034e-14
1.2988e-14
5.86778e-15
2.50789e-15
1.21601e-15
6.58693e-16
4.3469e-16
4.92595e-16
2.15861e-16
9.02563e-16
6.46612e-16
)
;

boundaryField
{
    inlet
    {
        type            calculated;
        value           nonuniform List<scalar> 
20
(
1.74002e-34
2.47863e-32
2.16001e-32
1.29439e-32
1.07657e-32
9.52014e-33
8.38296e-33
7.36508e-33
6.14156e-33
4.91302e-33
3.7574e-33
3.00608e-33
2.80057e-33
2.45891e-33
1.44558e-33
1.73857e-33
5.56976e-34
7.27088e-33
6.03349e-33
1.48035e-34
)
;
    }
    outlet
    {
        type            calculated;
        value           nonuniform List<scalar> 
27
(
4.19723e-34
9.36039e-34
2.26563e-33
8.96322e-33
6.36533e-35
8.47196e-33
9.81632e-33
6.92821e-33
1.19445e-33
8.95618e-34
1.24297e-33
3.1335e-33
9.18755e-34
5.01723e-33
2.46223e-33
2.29141e-33
1.16775e-36
2.3542e-47
1.4401e-36
2.02813e-37
3.27423e-37
1.078e-36
5.50495e-40
1.58183e-35
2.69067e-34
9.46615e-34
9.55679e-35
)
;
    }
    lowerWall
    {
        type            fixedValue;
        value           uniform 0;
    }
    upperWall
    {
        type            fixedValue;
        value           uniform 0;
    }
    defaultFaces
    {
        type            empty;
    }
}


// ************************************************************************* //
