/*--------------------------------*- C++ -*----------------------------------*\
| =========                 |                                                 |
| \\      /  F ield         | OpenFOAM: The Open Source CFD Toolbox           |
|  \\    /   O peration     | Version:  2112                                  |
|   \\  /    A nd           | Website:  www.openfoam.com                      |
|    \\/     M anipulation  |                                                 |
\*---------------------------------------------------------------------------*/
FoamFile
{
    version     2.0;
    format      ascii;
    arch        "LSB;label=32;scalar=64";
    class       volScalarField;
    location    "0.33";
    object      p;
}
// * * * * * * * * * * * * * * * * * * * * * * * * * * * * * * * * * * * * * //

dimensions      [0 2 -2 0 0 0 0];

internalField   nonuniform List<scalar> 
1880
(
0.00320324
0.00307204
0.00297861
0.00293023
0.00290139
0.00288113
0.00286191
0.00284291
0.0028267
0.00281498
0.00280385
0.00279863
0.00279401
0.00279323
0.00279741
0.00280534
0.00281908
0.00283636
0.00286263
0.00289303
0.00293944
0.0029842
0.00304501
0.00312052
0.00319499
0.00331019
0.00342955
0.00354999
0.00371817
0.00381757
0.00302279
0.00299542
0.00295253
0.00291568
0.00288731
0.00286561
0.00284899
0.00283102
0.00281848
0.00280615
0.00279514
0.00278789
0.00278345
0.00278154
0.00278372
0.00279223
0.00280029
0.00282009
0.00283407
0.0028751
0.0029032
0.00295579
0.00300091
0.00307059
0.00314116
0.00324327
0.0033527
0.00348254
0.00362645
0.0037538
0.0029897
0.00297205
0.0029417
0.00290942
0.00288166
0.00285872
0.00284116
0.00282381
0.00281137
0.00279959
0.00278636
0.00277813
0.00277294
0.00276864
0.00276767
0.00277223
0.0027812
0.00279266
0.00280571
0.00283264
0.00285903
0.00289787
0.00293568
0.00299369
0.00304597
0.00312246
0.00320066
0.00326746
0.0033593
0.00340422
0.00293182
0.00292287
0.00290712
0.00288471
0.00286344
0.00284297
0.00282652
0.00280902
0.00279708
0.00278564
0.00277146
0.0027632
0.00275512
0.00275134
0.00274397
0.00274795
0.00275101
0.00275798
0.00276529
0.00278225
0.00280358
0.00282553
0.0028581
0.00288798
0.0029282
0.00297468
0.00301246
0.003051
0.00309332
0.00308603
0.00290329
0.0028969
0.00288715
0.00286948
0.0028519
0.00283265
0.00281633
0.00279849
0.00278559
0.00277351
0.00275829
0.00274799
0.00273861
0.00273178
0.00272129
0.00272029
0.0027194
0.00272133
0.0027216
0.00273005
0.00274155
0.00275343
0.00276967
0.00278464
0.00280522
0.00282293
0.00283482
0.00284029
0.00283062
0.00279493
0.00287595
0.00287041
0.0028633
0.00284911
0.00283432
0.00281752
0.00280193
0.00278439
0.0027705
0.00275816
0.00274148
0.00272943
0.00271878
0.00270848
0.00269581
0.00268816
0.00268544
0.00267959
0.00267453
0.00267305
0.00267606
0.00267659
0.00267858
0.00267744
0.00267866
0.00267376
0.00266101
0.00263295
0.00259543
0.00252898
0.00285536
0.00285035
0.00284498
0.00283295
0.00282006
0.00280478
0.00278958
0.00277191
0.00275685
0.00274361
0.00272519
0.00271123
0.00269827
0.00268537
0.00266897
0.00265679
0.00264938
0.00263739
0.00262578
0.00261567
0.00260935
0.00259964
0.00258729
0.00257194
0.00255532
0.00253086
0.00249558
0.00244574
0.00238066
0.00229236
0.00283844
0.00283396
0.00282912
0.0028183
0.00280603
0.00279179
0.00277647
0.00275859
0.0027424
0.0027279
0.00270815
0.00269122
0.00267706
0.00265996
0.00264117
0.00262363
0.00261165
0.00259419
0.00257526
0.00255781
0.00254215
0.00252155
0.0024981
0.00246866
0.0024371
0.00239556
0.00234254
0.00227321
0.00218823
0.00208206
0.00282519
0.00282094
0.00281625
0.00280599
0.00279388
0.00278009
0.00276431
0.00274604
0.00272847
0.00271279
0.00269111
0.00267185
0.00265549
0.002635
0.00261295
0.00259063
0.00257419
0.00255111
0.00252534
0.00250088
0.00247604
0.00244657
0.00241196
0.00237037
0.00232572
0.00226983
0.00220132
0.0021173
0.00201651
0.0018966
0.00281525
0.00281125
0.00280631
0.00279616
0.00278368
0.00276977
0.00275329
0.00273405
0.00271533
0.0026978
0.00267463
0.0026525
0.00263409
0.00261021
0.00258455
0.00255844
0.00253666
0.00250891
0.00247645
0.00244494
0.00241277
0.0023741
0.00233009
0.00227806
0.00222168
0.0021541
0.00207316
0.00197692
0.00186468
0.00173424
0.00280874
0.00280481
0.00279936
0.0027889
0.0027756
0.00276113
0.00274348
0.0027231
0.0027029
0.00268365
0.00265861
0.00263393
0.00261314
0.00258613
0.00255688
0.00252693
0.00250031
0.00246812
0.00242926
0.00239153
0.00235237
0.00230576
0.00225345
0.00219215
0.00212592
0.00204897
0.0019576
0.00185193
0.00173119
0.00159281
0.00280573
0.00280175
0.00279557
0.00278438
0.00276997
0.00275442
0.00273546
0.00271348
0.00269191
0.00267066
0.00264383
0.00261661
0.00259326
0.00256349
0.00253032
0.00249708
0.00246587
0.00242929
0.00238501
0.00234107
0.00229602
0.00224244
0.0021824
0.00211365
0.00203886
0.001954
0.00185488
0.00174177
0.00161476
0.0014709
0.00280658
0.00280223
0.00279493
0.00278249
0.00276636
0.00274912
0.0027283
0.00270455
0.00268144
0.00265833
0.00262969
0.00260016
0.00257427
0.00254181
0.00250501
0.00246864
0.00243334
0.00239263
0.00234337
0.00229397
0.00224369
0.00218408
0.00211741
0.00204238
0.00196041
0.00186928
0.00176406
0.00164514
0.00151349
0.00136583
0.00281202
0.00280725
0.0027987
0.00278472
0.00276666
0.00274743
0.00272462
0.00269895
0.0026742
0.00264887
0.00261812
0.00258636
0.00255766
0.00252249
0.00248216
0.00244285
0.00240395
0.00235898
0.00230544
0.00225113
0.00219609
0.00213152
0.00205884
0.00197852
0.0018909
0.00179452
0.0016848
0.00156157
0.0014267
0.00127717
0.00282196
0.00281577
0.00280473
0.00278779
0.00276663
0.00274453
0.00271935
0.00269172
0.00266538
0.0026383
0.0026058
0.00257223
0.00254109
0.00250349
0.00246038
0.00241872
0.00237674
0.0023278
0.00227045
0.0022121
0.002153
0.00208421
0.00200648
0.00192177
0.00182961
0.00172894
0.00161578
0.00148952
0.0013524
0.00120152
0.00284105
0.00283341
0.00281924
0.00279841
0.00277327
0.00274776
0.00272007
0.00269056
0.00266263
0.00263357
0.00259917
0.00256354
0.00252954
0.00248924
0.00244332
0.00239906
0.00235386
0.00230091
0.00224019
0.00217848
0.00211548
0.00204286
0.00196075
0.00187224
0.00177661
0.00167247
0.00155682
0.00142876
0.00129047
0.00114005
0.00286171
0.00284982
0.00282976
0.00280335
0.00277408
0.00274576
0.00271644
0.00268573
0.00265642
0.00262549
0.00258929
0.00255183
0.00251521
0.00247268
0.0024252
0.00237928
0.00233132
0.00227498
0.00221196
0.00214808
0.00208184
0.002006
0.00192058
0.00182892
0.00173036
0.00162331
0.00150579
0.001377
0.00123824
0.0010874
0.00291507
0.00289278
0.00285868
0.00282099
0.00278481
0.00275273
0.00272158
0.00268953
0.00265817
0.00262469
0.00258648
0.00254726
0.00250822
0.00246386
0.00241535
0.00236748
0.00231653
0.00225727
0.00219226
0.00212559
0.0020552
0.00197599
0.00188792
0.00179366
0.00169277
0.00158349
0.00146477
0.00133619
0.00119838
0.00104983
0.00294397
0.00290948
0.00286472
0.00282201
0.00278399
0.00275178
0.00272027
0.00268712
0.00265402
0.00261867
0.00257956
0.00253924
0.00249758
0.00245164
0.002403
0.00235344
0.0022987
0.00223612
0.00216993
0.00210218
0.00202953
0.00194881
0.00185922
0.00176185
0.00165727
0.00154523
0.00142573
0.0012987
0.0011628
0.00101633
0.00312362
0.00298392
0.00288682
0.0028326
0.00279652
0.00276383
0.00272948
0.00269326
0.00265707
0.00261956
0.00258015
0.0025398
0.00249686
0.00245011
0.00240091
0.00234956
0.00229338
0.00223103
0.00216444
0.00209422
0.00201875
0.00193685
0.00184703
0.00174947
0.00164429
0.00153139
0.00141146
0.00128498
0.00115053
0.0010072
0.00395557
0.00375342
0.00350712
0.00301455
0.00234994
0.00179194
0.000810033
6.39291e-05
-0.00130864
-0.00265924
0.0038226
0.00350371
0.003074
0.00255079
0.00188507
0.00129897
0.000360328
-0.000495292
-0.0016185
-0.00301387
0.00342591
0.00311731
0.00272004
0.00231241
0.00163347
0.00111162
0.000221168
-0.000503868
-0.00157611
-0.00257094
0.00307994
0.00280052
0.00239008
0.00190848
0.00133621
0.000745423
1.25203e-05
-0.000773887
-0.00163054
-0.00259509
0.00274002
0.00246289
0.00205144
0.00165534
0.00111276
0.000587555
-9.88189e-05
-0.000845268
-0.00159045
-0.00239762
0.00244676
0.00217862
0.00181098
0.00138319
0.000910637
0.000363261
-0.000228071
-0.000915169
-0.00158674
-0.00229709
0.00218586
0.00192961
0.00156577
0.00117715
0.000736573
0.000239465
-0.00030892
-0.000934543
-0.00154349
-0.00215746
0.00195962
0.00170824
0.00137701
0.000993815
0.000590242
0.000116298
-0.000388099
-0.000949242
-0.00150292
-0.00204819
0.00176025
0.00152085
0.00120355
0.000844861
0.000466463
3.25598e-05
-0.000437936
-0.000948633
-0.00144922
-0.0019357
0.00158911
0.00135773
0.00106175
0.000720576
0.000364743
-3.81628e-05
-0.000476233
-0.000940092
-0.00139149
-0.00183262
0.00143991
0.00121876
0.000937901
0.000617473
0.000281461
-9.15181e-05
-0.000497906
-0.000921839
-0.00133404
-0.00173552
0.00131373
0.00110112
0.000836432
0.000534391
0.000215947
-0.000131968
-0.000508338
-0.000897658
-0.00127513
-0.00164409
0.00120451
0.00099973
0.000749014
0.000464694
0.00016329
-0.000162461
-0.000511561
-0.000870283
-0.00121954
-0.00156055
0.00111491
0.000917449
0.000679994
0.000411418
0.000125296
-0.000181525
-0.000506646
-0.000839448
-0.00116496
-0.00148327
0.00103695
0.000844835
0.000619348
0.000365668
9.44001e-05
-0.000195123
-0.000499249
-0.000809802
-0.00111537
-0.00141441
0.000977238
0.000790997
0.000575925
0.000334804
7.63562e-05
-0.000198554
-0.000485754
-0.000778768
-0.00106846
-0.0013524
0.000923596
0.000741047
0.000535596
0.000307002
6.14398e-05
-0.000199594
-0.000471988
-0.000750364
-0.00102696
-0.00129857
0.000889221
0.000711262
0.000513095
0.000293723
5.77341e-05
-0.000193006
-0.000454628
-0.000722722
-0.000990119
-0.00125287
0.000857781
0.000684083
0.00049347
0.000284282
5.82824e-05
-0.000183017
-0.000435152
-0.000694911
-0.000955951
-0.00121268
0.000852383
0.000680809
0.000492176
0.000285901
6.33538e-05
-0.000174263
-0.000422568
-0.00067914
-0.000937708
-0.00119477
-0.00558912
-0.00582952
-0.00591152
-0.00598569
-0.00678186
-0.00896796
-0.0116685
-0.013286
-0.0136676
-0.0127863
-0.0110348
-0.00863926
-0.00598053
-0.00325216
-0.000776269
0.00105349
0.00223788
0.00275225
0.00286763
0.00274732
0.00251293
0.00223717
0.00195971
0.00169952
0.00146316
0.00125235
0.00106139
0.000890047
0.000738405
0.000606643
0.000494258
0.00040004
0.000321456
0.000256064
0.00020096
0.000153947
0.000112965
7.65612e-05
4.38791e-05
1.36782e-05
-0.00573575
-0.00600472
-0.00601144
-0.00612263
-0.00746098
-0.0100266
-0.0126853
-0.0141552
-0.0143639
-0.013377
-0.0115102
-0.00908278
-0.00638851
-0.00365946
-0.00109849
0.000815934
0.00205739
0.00261535
0.00275134
0.00265148
0.00243661
0.00217754
0.00191328
0.00166322
0.00143535
0.00122703
0.00103934
0.000871572
0.000723645
0.000595606
0.000486653
0.00039527
0.000318967
0.000255192
0.000201293
0.000154913
0.000114313
7.78788e-05
4.49046e-05
1.43033e-05
-0.00553121
-0.00579179
-0.00611622
-0.00681288
-0.00859624
-0.0113839
-0.0140443
-0.0154155
-0.0155228
-0.0143423
-0.0122859
-0.00980018
-0.00710317
-0.00438228
-0.00172457
0.000333079
0.00167556
0.00231026
0.00248724
0.00242593
0.00225015
0.00202485
0.00178826
0.00156188
0.00135414
0.00116564
0.000994853
0.00084116
0.000705516
0.000587525
0.000485793
0.000398792
0.000324686
0.000261516
0.000207225
0.000160004
0.00011839
8.09976e-05
4.69596e-05
1.52559e-05
-0.0052803
-0.00534859
-0.00541394
-0.00677746
-0.00941782
-0.0126578
-0.0153953
-0.0167446
-0.0167173
-0.0153575
-0.0130876
-0.0105284
-0.00785713
-0.00518547
-0.00246588
-0.000306116
0.00115138
0.00188396
0.0021226
0.00211525
0.00199692
0.00182465
0.0016295
0.00143501
0.00125366
0.00108715
0.000934763
0.000797359
0.00067542
0.000567675
0.000473229
0.000391017
0.00031997
0.000258829
0.000205964
0.000159694
0.000118695
8.16017e-05
4.75285e-05
1.56096e-05
-0.00520152
-0.00560143
-0.00559348
-0.00720508
-0.00982933
-0.0130984
-0.0159572
-0.0174696
-0.0174697
-0.0160987
-0.0136672
-0.0110335
-0.00841476
-0.00582719
-0.00316666
-0.000962265
0.000560349
0.0013758
0.00169403
0.00175168
0.00169446
0.00158232
0.00144036
0.00128788
0.00113764
0.000994639
0.000862032
0.000742177
0.000635077
0.000539962
0.000455021
0.000379539
0.00031316
0.000254966
0.000203859
0.0001587
0.00011829
8.15224e-05
4.76092e-05
1.56752e-05
-0.00479854
-0.005495
-0.0048922
-0.00679974
-0.00966983
-0.0129905
-0.0160606
-0.0176829
-0.0177305
-0.016311
-0.0138214
-0.0111739
-0.00861291
-0.00612411
-0.0036104
-0.00149246
-8.1264e-07
0.000840031
0.00123387
0.00137459
0.00139076
0.00133818
0.00124542
0.0011351
0.00101983
0.000904019
0.000791145
0.000686957
0.000593644
0.000509413
0.000432797
0.00036328
0.000301022
0.000245839
0.000197149
0.000153908
0.000115083
7.95272e-05
4.65678e-05
1.54042e-05
-0.0047186
-0.00548387
-0.00464724
-0.006641
-0.00918839
-0.0122544
-0.0150746
-0.0166709
-0.0168368
-0.0156506
-0.0134288
-0.0109463
-0.00851564
-0.00617109
-0.00382959
-0.0018454
-0.00043556
0.000369497
0.000794961
0.00100151
0.00108847
0.00110002
0.00105882
0.000986988
0.000901826
0.000810345
0.000716413
0.000625926
0.000543837
0.000470283
0.000403608
0.000342469
0.000286282
0.000235236
0.000189277
0.000148028
0.000110899
7.66417e-05
4.49257e-05
1.47939e-05
-0.00481775
-0.00372317
-0.00439648
-0.00618076
-0.0086041
-0.0111475
-0.0135962
-0.0151035
-0.0154042
-0.0145322
-0.012701
-0.0104769
-0.00822942
-0.00604772
-0.00390615
-0.00210092
-0.000792784
-5.75007e-06
0.000442301
0.000692311
0.000818587
0.000870471
0.000871412
0.000838722
0.000782684
0.000712179
0.000635794
0.000561091
0.000491547
0.000426985
0.000366567
0.000311541
0.000262104
0.000217017
0.000175654
0.000137976
0.000103536
7.21038e-05
4.24878e-05
1.41106e-05
-0.00391431
-0.00455288
-0.0052128
-0.00637613
-0.00822386
-0.0103574
-0.0124425
-0.0136859
-0.0139006
-0.0131923
-0.0116704
-0.00970074
-0.00765929
-0.00568118
-0.00380979
-0.00226572
-0.00114036
-0.000390363
9.65823e-05
0.000408473
0.000586255
0.000666492
0.000690952
0.000685
0.000655574
0.000606092
0.000546283
0.000485985
0.000428857
0.000376118
0.000327939
0.000282952
0.000239874
0.000199378
0.000162326
0.000128124
9.63949e-05
6.69736e-05
3.93302e-05
1.29955e-05
-0.0034781
-0.00417107
-0.00492784
-0.00609605
-0.00765131
-0.00932538
-0.0109207
-0.0119112
-0.0121066
-0.0115473
-0.0102917
-0.00861074
-0.00683967
-0.0051576
-0.00362614
-0.00234439
-0.0013802
-0.000705388
-0.000229862
9.9429e-05
0.000316172
0.000441985
0.000503508
0.000524178
0.000517844
0.000490764
0.000450314
0.000405646
0.000362074
0.000318699
0.000275329
0.000235107
0.000200435
0.000169916
0.000140729
0.000112464
8.5726e-05
6.02769e-05
3.56733e-05
1.18805e-05
-0.00326492
-0.00393957
-0.00479104
-0.00580516
-0.00697922
-0.00822653
-0.00936769
-0.0100945
-0.0102304
-0.00980899
-0.00882389
-0.00747307
-0.00605225
-0.00470041
-0.0034636
-0.00240128
-0.00155221
-0.000924
-0.000466522
-0.000139772
7.7735e-05
0.000216328
0.000305228
0.000355356
0.000373595
0.00036813
0.000348355
0.000324819
0.000297797
0.000265947
0.00023367
0.000204253
0.000176439
0.000148968
0.000122786
9.83215e-05
7.51759e-05
5.29103e-05
3.13515e-05
1.02859e-05
-0.00300828
-0.00365983
-0.00447273
-0.00533078
-0.00622116
-0.00715448
-0.00799491
-0.00854296
-0.00865948
-0.00834607
-0.00760731
-0.00656887
-0.00544052
-0.00435066
-0.00333106
-0.00241885
-0.00166687
-0.00109858
-0.000676455
-0.000355976
-0.00012474
3.26414e-05
0.000138769
0.000205863
0.000241016
0.000252142
0.000249024
0.000239525
0.000225822
0.000207134
0.000183496
0.000158241
0.000135455
0.000115923
9.80509e-05
8.05832e-05
6.29783e-05
4.49273e-05
2.73231e-05
9.18506e-06
-0.00282895
-0.00341874
-0.00413708
-0.00486983
-0.00559236
-0.00632962
-0.00697219
-0.00737087
-0.00744447
-0.00720096
-0.00664983
-0.00585116
-0.00493899
-0.00402829
-0.00318254
-0.00242333
-0.00176746
-0.0012415
-0.000838239
-0.000527072
-0.000290388
-0.000119209
-1.48224e-06
7.76131e-05
0.000129689
0.000160677
0.000172562
0.000172123
0.000167059
0.000157081
0.000142776
0.000129332
0.00011851
0.000106872
9.17886e-05
7.34777e-05
5.53049e-05
3.82134e-05
2.21672e-05
7.32409e-06
-0.0026623
-0.00318925
-0.00380155
-0.00443603
-0.00504249
-0.00562467
-0.0061124
-0.00641583
-0.00647812
-0.00628874
-0.00586352
-0.00524353
-0.00451573
-0.00376564
-0.00305244
-0.0024046
-0.0018327
-0.00135559
-0.000978218
-0.000682794
-0.000454616
-0.000281932
-0.000152811
-5.96312e-05
4.91353e-06
4.94465e-05
7.82995e-05
9.3818e-05
9.8834e-05
9.75599e-05
9.3273e-05
8.54353e-05
7.51825e-05
6.45134e-05
5.58293e-05
4.89371e-05
4.14536e-05
3.15918e-05
2.01287e-05
6.99065e-06
-0.00250551
-0.00297698
-0.00350218
-0.00404997
-0.0045662
-0.00503927
-0.00542781
-0.0056681
-0.00572269
-0.00557781
-0.00523607
-0.00474231
-0.0041574
-0.00354039
-0.00293806
-0.00237794
-0.00187539
-0.00144773
-0.00110091
-0.00081988
-0.00059417
-0.000417823
-0.000280487
-0.000175182
-9.76663e-05
-4.23422e-05
-3.46575e-06
2.25663e-05
4.09377e-05
5.40703e-05
5.86067e-05
5.49843e-05
4.95918e-05
4.48107e-05
4.02682e-05
3.4857e-05
2.7818e-05
2.04123e-05
1.21456e-05
3.99154e-06
-0.00235719
-0.00277969
-0.00323461
-0.00370906
-0.0041524
-0.00454522
-0.00486024
-0.00505334
-0.00510043
-0.00498877
-0.00471646
-0.00432022
-0.00384757
-0.00333828
-0.00282893
-0.00234625
-0.00190482
-0.00151852
-0.00119669
-0.000930968
-0.000710483
-0.000531037
-0.000389785
-0.000279959
-0.000194243
-0.000127575
-7.85053e-05
-4.43146e-05
-2.04984e-05
-2.93443e-06
9.098e-06
1.69281e-05
2.35718e-05
2.92441e-05
3.12668e-05
2.98985e-05
2.60975e-05
2.0645e-05
1.30755e-05
4.96059e-06
-0.002218
-0.00259954
-0.00299912
-0.00341276
-0.00379871
-0.00413318
-0.00439377
-0.00455455
-0.00459696
-0.00451076
-0.00429302
-0.00397126
-0.00358381
-0.00316005
-0.00272818
-0.00231368
-0.00192851
-0.00158133
-0.001282
-0.00103087
-0.000821134
-0.000645673
-0.000500535
-0.000383579
-0.000291572
-0.000217714
-0.000157075
-0.000109846
-7.23278e-05
-4.47854e-05
-2.62278e-05
-1.31988e-05
-5.07054e-06
6.75858e-08
3.11561e-06
4.51969e-06
4.51884e-06
3.47014e-06
2.09762e-06
2.95298e-07
-0.0020899
-0.00243595
-0.00279214
-0.00315478
-0.00349274
-0.00378283
-0.0040052
-0.00413918
-0.00417693
-0.00411166
-0.00393966
-0.00367793
-0.00335728
-0.00300395
-0.00263843
-0.00227969
-0.00194013
-0.00162849
-0.00135325
-0.00111609
-0.000912405
-0.000738988
-0.000592748
-0.000469649
-0.000366942
-0.000283792
-0.000218822
-0.000166826
-0.000125819
-9.192e-05
-6.43233e-05
-4.17334e-05
-2.38359e-05
-1.04142e-05
-1.16657e-06
4.47564e-06
7.08469e-06
7.41385e-06
5.49266e-06
2.13308e-06
-0.00197275
-0.00229002
-0.00261039
-0.00293181
-0.00323129
-0.00348583
-0.00367902
-0.00379685
-0.00383218
-0.00378109
-0.00364294
-0.00343076
-0.0031663
-0.00286974
-0.00255844
-0.00224732
-0.00194856
-0.00167031
-0.00141806
-0.00119501
-0.000999574
-0.000829022
-0.000681722
-0.000556556
-0.000451577
-0.00036281
-0.000286567
-0.000223345
-0.000171707
-0.000130173
-9.71151e-05
-7.19265e-05
-5.28632e-05
-3.82767e-05
-2.72206e-05
-1.90394e-05
-1.303e-05
-8.62441e-06
-4.93812e-06
-1.7869e-06
-0.00186727
-0.00216016
-0.00245185
-0.00273999
-0.00300665
-0.00323296
-0.00340366
-0.00350819
-0.00354329
-0.00350519
-0.00339363
-0.00322068
-0.00300243
-0.00275276
-0.00248701
-0.00221921
-0.00195719
-0.00170707
-0.0014752
-0.00126494
-0.00107672
-0.000909834
-0.000762168
-0.00063116
-0.000516589
-0.000419425
-0.000338662
-0.000271081
-0.000214324
-0.000166788
-0.000126749
-9.34923e-05
-6.66304e-05
-4.55725e-05
-2.95411e-05
-1.77786e-05
-9.61205e-06
-4.29227e-06
-1.50487e-06
-2.65674e-07
-0.00177272
-0.00204625
-0.00231439
-0.00257523
-0.00281539
-0.00301833
-0.0031718
-0.00326773
-0.0033019
-0.00327365
-0.00318527
-0.00304353
-0.00286129
-0.00265252
-0.00242791
-0.00219599
-0.00196488
-0.00174151
-0.00153034
-0.00133325
-0.00115119
-0.000985544
-0.000836496
-0.000703412
-0.00058612
-0.0004839
-0.00039466
-0.000317516
-0.000252339
-0.000198016
-0.000153957
-0.000118843
-9.04783e-05
-6.79151e-05
-5.01822e-05
-3.62842e-05
-2.53468e-05
-1.65815e-05
-9.27717e-06
-3.17872e-06
-0.00168917
-0.00194705
-0.00219641
-0.00243533
-0.00265339
-0.00283733
-0.0029764
-0.00306435
-0.00309927
-0.00307972
-0.003008
-0.00289244
-0.00274273
-0.00256765
-0.00237623
-0.00217726
-0.0019765
-0.0017778
-0.00158425
-0.00139786
-0.00122142
-0.00105801
-0.000907987
-0.000769978
-0.000644426
-0.00053341
-0.000437647
-0.000355704
-0.000285386
-0.00022567
-0.000175264
-0.00013391
-9.99551e-05
-7.28242e-05
-5.1464e-05
-3.50375e-05
-2.26048e-05
-1.34512e-05
-6.71563e-06
-1.93835e-06
-0.00161611
-0.0018619
-0.00209611
-0.00231733
-0.00251776
-0.00268601
-0.00281304
-0.00289504
-0.00292948
-0.00291614
-0.00285922
-0.00276503
-0.00264088
-0.00249519
-0.00233528
-0.00216634
-0.00199168
-0.00181492
-0.00163885
-0.00146483
-0.00129397
-0.00112952
-0.000974688
-0.000831153
-0.000700593
-0.000584357
-0.00048172
-0.000391459
-0.000313698
-0.000248388
-0.000194415
-0.000149857
-0.000114166
-8.56593e-05
-6.31576e-05
-4.54491e-05
-3.15747e-05
-2.05666e-05
-1.16007e-05
-3.9361e-06
-0.00155363
-0.00179054
-0.00201316
-0.00221992
-0.00240462
-0.00255928
-0.00267655
-0.00275285
-0.00278665
-0.00277858
-0.00273267
-0.00265538
-0.00255435
-0.00243591
-0.00230359
-0.00216091
-0.00201168
-0.00185711
-0.00169664
-0.00153137
-0.00136445
-0.00120011
-0.00104176
-0.000891527
-0.000751953
-0.000625971
-0.000514967
-0.0004185
-0.000335757
-0.000265691
-0.000207129
-0.000158723
-0.000119671
-8.83497e-05
-6.34662e-05
-4.39414e-05
-2.88326e-05
-1.73172e-05
-8.72049e-06
-2.45287e-06
-0.00150156
-0.00173294
-0.00194808
-0.00214463
-0.00231662
-0.00245867
-0.00256668
-0.00263753
-0.00266956
-0.0026643
-0.00262693
-0.00256394
-0.00248204
-0.00238675
-0.00228089
-0.00216537
-0.00204013
-0.00190345
-0.00175479
-0.00159612
-0.00143096
-0.00126351
-0.00109851
-0.000941099
-0.000794862
-0.000661753
-0.00054336
-0.000440301
-0.000351933
-0.000277355
-0.000215487
-0.00016507
-0.000124602
-9.2411e-05
-6.7096e-05
-4.72594e-05
-3.19467e-05
-2.00203e-05
-1.07964e-05
-3.38261e-06
-0.00145771
-0.00168575
-0.00189561
-0.00208423
-0.00224779
-0.0023815
-0.00248224
-0.00254748
-0.00257667
-0.00257292
-0.00254142
-0.0024892
-0.00242332
-0.00234842
-0.00226644
-0.00217722
-0.00207611
-0.00195717
-0.00181784
-0.00166095
-0.001492
-0.00131732
-0.00114345
-0.000977141
-0.000822468
-0.000682426
-0.000558105
-0.000450186
-0.000358144
-0.000280994
-0.000217244
-0.000165414
-0.000123718
-9.05524e-05
-6.43723e-05
-4.39113e-05
-2.8177e-05
-1.62453e-05
-7.66771e-06
-1.68675e-06
-0.00144206
-0.00166917
-0.00187487
-0.00205803
-0.00221621
-0.00234541
-0.00244213
-0.00250416
-0.0025317
-0.00252818
-0.00249877
-0.00245049
-0.00239088
-0.00232413
-0.00225114
-0.00217096
-0.00207857
-0.00196729
-0.00183341
-0.00167953
-0.00151155
-0.00133618
-0.00116054
-0.000991286
-0.000833649
-0.000690957
-0.000564569
-0.000454902
-0.000361323
-0.000282906
-0.000218086
-0.000165525
-0.000123366
-9.00951e-05
-6.39918e-05
-4.37745e-05
-2.83271e-05
-1.66182e-05
-8.15238e-06
-1.96765e-06
)
;

boundaryField
{
    inlet
    {
        type            zeroGradient;
    }
    outlet
    {
        type            fixedValue;
        value           uniform 0;
    }
    lowerWall
    {
        type            zeroGradient;
    }
    upperWall
    {
        type            zeroGradient;
    }
    defaultFaces
    {
        type            empty;
    }
}


// ************************************************************************* //
