/*--------------------------------*- C++ -*----------------------------------*\
| =========                 |                                                 |
| \\      /  F ield         | OpenFOAM: The Open Source CFD Toolbox           |
|  \\    /   O peration     | Version:  2112                                  |
|   \\  /    A nd           | Website:  www.openfoam.com                      |
|    \\/     M anipulation  |                                                 |
\*---------------------------------------------------------------------------*/
FoamFile
{
    version     2.0;
    format      ascii;
    arch        "LSB;label=32;scalar=64";
    class       volVectorField;
    location    "0.33";
    object      U;
}
// * * * * * * * * * * * * * * * * * * * * * * * * * * * * * * * * * * * * * //

dimensions      [0 1 -1 0 0 0 0];

internalField   nonuniform List<vector> 
1880
(
(0.0989415 0.000624381 0)
(0.0984718 0.00112914 0)
(0.0972249 0.00132038 0)
(0.0959591 0.00132164 0)
(0.0940157 0.00135788 0)
(0.092543 0.00137795 0)
(0.0904409 0.00140701 0)
(0.089059 0.00145671 0)
(0.0868209 0.00138564 0)
(0.0854373 0.00144312 0)
(0.0831294 0.00134757 0)
(0.081742 0.00152056 0)
(0.0792128 0.00129029 0)
(0.0778509 0.0015056 0)
(0.0752485 0.00120905 0)
(0.0738165 0.00174452 0)
(0.0708998 0.00115917 0)
(0.0694726 0.00189281 0)
(0.066178 0.000984221 0)
(0.06487 0.00207603 0)
(0.0608515 0.00123619 0)
(0.0597711 0.00226933 0)
(0.0544084 0.00178549 0)
(0.0538651 0.00206897 0)
(0.0467954 0.00200092 0)
(0.0469214 0.00216988 0)
(0.0384655 0.00200797 0)
(0.0379353 0.00357835 0)
(0.0283237 0.00221308 0)
(0.0254991 0.00608584 0)
(0.0996672 0.000778388 0)
(0.100717 0.00129248 0)
(0.10019 0.00177364 0)
(0.101487 0.00163102 0)
(0.100593 0.001966 0)
(0.101761 0.00180405 0)
(0.10062 0.00214638 0)
(0.101718 0.00199046 0)
(0.10053 0.00236362 0)
(0.101297 0.00202621 0)
(0.100373 0.00253533 0)
(0.100499 0.00206806 0)
(0.1003 0.00282972 0)
(0.0990758 0.00217557 0)
(0.100129 0.00297951 0)
(0.0974037 0.00238464 0)
(0.0992602 0.00324527 0)
(0.0960876 0.00272668 0)
(0.0973869 0.00354565 0)
(0.0945486 0.00336143 0)
(0.0949288 0.00352618 0)
(0.0919706 0.00452123 0)
(0.0924974 0.00377305 0)
(0.0885678 0.00547151 0)
(0.0886091 0.00533599 0)
(0.0842414 0.0055379 0)
(0.0832667 0.00734565 0)
(0.0763444 0.00725255 0)
(0.0781108 0.00936125 0)
(0.0635306 0.0102261 0)
(0.0997784 0.00031579 0)
(0.100472 0.000554703 0)
(0.100226 0.00111541 0)
(0.101081 0.000991586 0)
(0.100913 0.00145537 0)
(0.101437 0.00127119 0)
(0.101488 0.0016196 0)
(0.101531 0.0015862 0)
(0.102046 0.00182548 0)
(0.101492 0.0017501 0)
(0.102424 0.00219077 0)
(0.101564 0.00171481 0)
(0.102542 0.00272608 0)
(0.101563 0.00185214 0)
(0.102564 0.0028627 0)
(0.101428 0.00261899 0)
(0.102183 0.00275956 0)
(0.101243 0.0034082 0)
(0.101577 0.00338286 0)
(0.100835 0.00339897 0)
(0.100858 0.00510917 0)
(0.0993448 0.00340566 0)
(0.100449 0.00646662 0)
(0.0971318 0.00493244 0)
(0.0988726 0.00729142 0)
(0.0954258 0.00661505 0)
(0.0954561 0.0104552 0)
(0.0923372 0.00766716 0)
(0.092152 0.0151105 0)
(0.0870197 0.0141875 0)
(0.0998132 0.000321526 0)
(0.100351 0.000473532 0)
(0.0999955 0.00116858 0)
(0.100767 0.000915947 0)
(0.100453 0.00165629 0)
(0.101148 0.00114072 0)
(0.100918 0.00192723 0)
(0.101328 0.00137823 0)
(0.101495 0.00214427 0)
(0.101274 0.00166527 0)
(0.102026 0.00237014 0)
(0.101336 0.00189019 0)
(0.102291 0.00268549 0)
(0.101485 0.0022082 0)
(0.10235 0.00295869 0)
(0.101689 0.00276286 0)
(0.102153 0.00323612 0)
(0.101573 0.00340763 0)
(0.102221 0.00391974 0)
(0.101155 0.00386453 0)
(0.101956 0.00526112 0)
(0.100663 0.00448824 0)
(0.101186 0.00654761 0)
(0.100026 0.00617254 0)
(0.100447 0.0079431 0)
(0.0985321 0.00817423 0)
(0.0993497 0.0109391 0)
(0.0973161 0.0111136 0)
(0.0964009 0.0142268 0)
(0.0959115 0.0170519 0)
(0.0998674 0.000207879 0)
(0.100233 0.000308504 0)
(0.100008 0.000796195 0)
(0.100492 0.000704067 0)
(0.100405 0.00119205 0)
(0.100819 0.00100069 0)
(0.10081 0.00142642 0)
(0.101089 0.00126137 0)
(0.101237 0.00168598 0)
(0.101235 0.00146047 0)
(0.101578 0.00212723 0)
(0.1015 0.00150933 0)
(0.101769 0.00266845 0)
(0.101661 0.00174861 0)
(0.101984 0.00301603 0)
(0.101832 0.00242395 0)
(0.101948 0.00334614 0)
(0.101857 0.00301783 0)
(0.101896 0.00434036 0)
(0.101879 0.00325362 0)
(0.101597 0.00595906 0)
(0.101722 0.00410478 0)
(0.10114 0.00711896 0)
(0.101434 0.00612098 0)
(0.100562 0.00857653 0)
(0.100812 0.00811989 0)
(0.0998852 0.0118638 0)
(0.100215 0.0108092 0)
(0.0990674 0.0157287 0)
(0.0993134 0.0163003 0)
(0.0998725 0.000181506 0)
(0.100216 0.000252671 0)
(0.0999788 0.000712468 0)
(0.100405 0.000612154 0)
(0.100321 0.00112755 0)
(0.100661 0.000908025 0)
(0.100719 0.00139001 0)
(0.100882 0.00119347 0)
(0.101199 0.00159779 0)
(0.100988 0.00151491 0)
(0.10157 0.00189931 0)
(0.101326 0.00174781 0)
(0.10168 0.002351 0)
(0.101675 0.00200698 0)
(0.101773 0.0028627 0)
(0.102029 0.00251895 0)
(0.101838 0.00337403 0)
(0.101995 0.00316508 0)
(0.102075 0.00421794 0)
(0.102047 0.00374495 0)
(0.10189 0.00567806 0)
(0.102183 0.00470353 0)
(0.101586 0.00700559 0)
(0.102104 0.00666534 0)
(0.101539 0.00849981 0)
(0.101677 0.00891664 0)
(0.101414 0.0114444 0)
(0.101741 0.0119217 0)
(0.101184 0.0150332 0)
(0.101826 0.0167696 0)
(0.0998959 0.000121401 0)
(0.100173 0.000232433 0)
(0.099994 0.000514679 0)
(0.10031 0.000550852 0)
(0.100295 0.000836686 0)
(0.100549 0.000838595 0)
(0.100634 0.00108226 0)
(0.100825 0.00108197 0)
(0.101055 0.00135557 0)
(0.101013 0.00129696 0)
(0.101411 0.00178015 0)
(0.101377 0.00144857 0)
(0.101614 0.00229172 0)
(0.101682 0.00173763 0)
(0.101827 0.00277815 0)
(0.102103 0.00232495 0)
(0.101916 0.00332096 0)
(0.102258 0.00295799 0)
(0.102187 0.00425938 0)
(0.102429 0.0035728 0)
(0.102258 0.00563903 0)
(0.102621 0.00470914 0)
(0.102229 0.00697242 0)
(0.102868 0.00657851 0)
(0.102358 0.00867383 0)
(0.102854 0.00868134 0)
(0.102679 0.0114898 0)
(0.103255 0.0115984 0)
(0.103111 0.0148356 0)
(0.103979 0.0159545 0)
(0.0999059 8.95547e-05 0)
(0.100151 0.000196876 0)
(0.100004 0.000401821 0)
(0.100258 0.000469543 0)
(0.100303 0.000672215 0)
(0.100461 0.000747811 0)
(0.100651 0.000888038 0)
(0.100721 0.00101639 0)
(0.101094 0.00111457 0)
(0.100937 0.00128891 0)
(0.10144 0.00147544 0)
(0.101397 0.00150454 0)
(0.101618 0.00197675 0)
(0.101794 0.00176543 0)
(0.101884 0.00255771 0)
(0.102234 0.00227891 0)
(0.102157 0.00316144 0)
(0.102389 0.00297655 0)
(0.102575 0.00398883 0)
(0.102723 0.00374994 0)
(0.102735 0.00527086 0)
(0.103126 0.00491169 0)
(0.102954 0.00664702 0)
(0.103518 0.00670382 0)
(0.103413 0.00833513 0)
(0.103836 0.00876308 0)
(0.104015 0.0109065 0)
(0.10464 0.0115602 0)
(0.104939 0.0140029 0)
(0.105752 0.0153723 0)
(0.0999193 5.14461e-05 0)
(0.100132 0.000178089 0)
(0.100016 0.000278701 0)
(0.100234 0.000406294 0)
(0.1003 0.000489034 0)
(0.100444 0.000645657 0)
(0.100629 0.000694696 0)
(0.100735 0.00086111 0)
(0.101066 0.000952438 0)
(0.100987 0.00107216 0)
(0.101442 0.00133862 0)
(0.101471 0.00128624 0)
(0.101693 0.00179834 0)
(0.101883 0.00160734 0)
(0.102039 0.00231732 0)
(0.102403 0.0021574 0)
(0.102372 0.00293239 0)
(0.102671 0.00282818 0)
(0.102907 0.00377516 0)
(0.103095 0.00362011 0)
(0.103269 0.00497755 0)
(0.103626 0.0048048 0)
(0.103675 0.00633723 0)
(0.104271 0.00647853 0)
(0.104348 0.00802492 0)
(0.104867 0.00843256 0)
(0.10526 0.0103726 0)
(0.10597 0.0110135 0)
(0.106509 0.013216 0)
(0.1075 0.014349 0)
(0.0999312 2.45977e-05 0)
(0.100114 0.000143839 0)
(0.100034 0.000176237 0)
(0.100214 0.000322708 0)
(0.100323 0.000324266 0)
(0.100428 0.00053164 0)
(0.100658 0.000489725 0)
(0.100743 0.000734949 0)
(0.101102 0.000717198 0)
(0.101043 0.000945711 0)
(0.101484 0.00107452 0)
(0.101588 0.00117018 0)
(0.101779 0.00151667 0)
(0.102025 0.00148272 0)
(0.102237 0.00203492 0)
(0.102559 0.00202301 0)
(0.102696 0.002627 0)
(0.102916 0.00272989 0)
(0.103302 0.00339858 0)
(0.103514 0.00354805 0)
(0.103773 0.00454137 0)
(0.104178 0.00468303 0)
(0.104409 0.00587987 0)
(0.104972 0.00625309 0)
(0.105299 0.00749681 0)
(0.105834 0.00809563 0)
(0.106424 0.00960635 0)
(0.107183 0.010454 0)
(0.107961 0.012181 0)
(0.108963 0.0133505 0)
(0.0999419 -5.73807e-07 0)
(0.100101 0.000104566 0)
(0.100049 7.9085e-05 0)
(0.100215 0.000225586 0)
(0.100343 0.000172828 0)
(0.100452 0.000382757 0)
(0.100682 0.000314833 0)
(0.100804 0.000540437 0)
(0.10114 0.000533884 0)
(0.10114 0.000720135 0)
(0.101555 0.000864541 0)
(0.101722 0.00095698 0)
(0.101913 0.0012494 0)
(0.102189 0.00129391 0)
(0.102449 0.00171821 0)
(0.102786 0.00182233 0)
(0.102989 0.00230917 0)
(0.103234 0.00248666 0)
(0.103694 0.00306047 0)
(0.103947 0.00328038 0)
(0.104295 0.00411704 0)
(0.104743 0.00437931 0)
(0.105093 0.00538464 0)
(0.105705 0.00583723 0)
(0.106173 0.00691624 0)
(0.106763 0.0075389 0)
(0.107488 0.0088216 0)
(0.108321 0.00963603 0)
(0.109211 0.0111184 0)
(0.110308 0.0121515 0)
(0.0999526 -2.22824e-05 0)
(0.10009 5.52978e-05 0)
(0.100069 -1.53367e-05 0)
(0.100221 0.00011697 0)
(0.100377 2.11016e-05 0)
(0.100487 0.000230574 0)
(0.100731 0.000129779 0)
(0.100879 0.000363881 0)
(0.101205 0.000323207 0)
(0.101259 0.000528181 0)
(0.101651 0.000621665 0)
(0.101879 0.000763877 0)
(0.102073 0.000970014 0)
(0.102369 0.00109275 0)
(0.102701 0.00140155 0)
(0.103017 0.00160645 0)
(0.103314 0.00195617 0)
(0.103571 0.00225002 0)
(0.104083 0.00266522 0)
(0.104414 0.00299687 0)
(0.104801 0.00365297 0)
(0.105302 0.0040251 0)
(0.105778 0.00483241 0)
(0.106398 0.00538074 0)
(0.107005 0.00624941 0)
(0.107642 0.00693999 0)
(0.108462 0.00795457 0)
(0.10935 0.00879288 0)
(0.110335 0.00998231 0)
(0.111465 0.0109612 0)
(0.0999616 -4.32592e-05 0)
(0.100084 -7.86581e-06 0)
(0.100092 -0.000116847 0)
(0.100245 -2.23855e-05 0)
(0.100423 -0.000145138 0)
(0.100552 2.73644e-05 0)
(0.100803 -7.85719e-05 0)
(0.100989 0.000116617 0)
(0.1013 7.74757e-05 0)
(0.101406 0.00024995 0)
(0.101782 0.00033015 0)
(0.102059 0.000479165 0)
(0.102263 0.000628056 0)
(0.102585 0.000791908 0)
(0.102961 0.00102263 0)
(0.103295 0.0012655 0)
(0.103637 0.00155522 0)
(0.103937 0.00185995 0)
(0.104487 0.00222283 0)
(0.104882 0.00256122 0)
(0.105309 0.00311411 0)
(0.105866 0.00352239 0)
(0.106421 0.00419838 0)
(0.107081 0.00476098 0)
(0.107783 0.00550791 0)
(0.108471 0.00616896 0)
(0.109353 0.00702453 0)
(0.110297 0.00778534 0)
(0.111333 0.00878651 0)
(0.112498 0.00964577 0)
(0.0999699 -6.5033e-05 0)
(0.10008 -7.72362e-05 0)
(0.100116 -0.000218894 0)
(0.100273 -0.000160162 0)
(0.100477 -0.000297903 0)
(0.100628 -0.0001517 0)
(0.100891 -0.000255347 0)
(0.101114 -8.28801e-05 0)
(0.101415 -0.000124621 0)
(0.101572 3.40669e-05 0)
(0.101943 9.53914e-05 0)
(0.102257 0.000255794 0)
(0.102486 0.000356136 0)
(0.102824 0.000547281 0)
(0.103253 0.000712744 0)
(0.103599 0.000981278 0)
(0.103977 0.0012008 0)
(0.104331 0.00152416 0)
(0.1049 0.00182131 0)
(0.105364 0.00216328 0)
(0.105827 0.00261666 0)
(0.106421 0.00303748 0)
(0.107061 0.00358733 0)
(0.107748 0.00415783 0)
(0.108517 0.00477876 0)
(0.109261 0.00541788 0)
(0.11018 0.0061274 0)
(0.111163 0.00682995 0)
(0.112237 0.00764673 0)
(0.113405 0.00841379 0)
(0.0999773 -9.57627e-05 0)
(0.100087 -0.000184202 0)
(0.100161 -0.000372098 0)
(0.100339 -0.000374455 0)
(0.100577 -0.000529021 0)
(0.10076 -0.000429575 0)
(0.101035 -0.000527594 0)
(0.101294 -0.000396907 0)
(0.101589 -0.000442295 0)
(0.101786 -0.000315802 0)
(0.102156 -0.000272968 0)
(0.102496 -0.000126072 0)
(0.102748 -6.19443e-05 0)
(0.103107 0.000123826 0)
(0.103568 0.000251827 0)
(0.103933 0.000501835 0)
(0.104335 0.000692178 0)
(0.104744 0.000991481 0)
(0.105337 0.00125479 0)
(0.10585 0.00157146 0)
(0.106346 0.00194863 0)
(0.106973 0.00235709 0)
(0.107674 0.00282444 0)
(0.108395 0.00335896 0)
(0.109222 0.00390145 0)
(0.110016 0.00447712 0)
(0.110971 0.0050839 0)
(0.111977 0.00569726 0)
(0.113073 0.00637364 0)
(0.114229 0.00702959 0)
(0.099983 -0.000120901 0)
(0.100095 -0.000268969 0)
(0.100212 -0.000477329 0)
(0.100423 -0.00051258 0)
(0.100703 -0.000659222 0)
(0.100923 -0.000586566 0)
(0.101217 -0.000674345 0)
(0.101505 -0.000576925 0)
(0.101802 -0.000627677 0)
(0.102037 -0.000527381 0)
(0.102413 -0.000496821 0)
(0.102772 -0.000366103 0)
(0.103061 -0.00032388 0)
(0.103442 -0.000143897 0)
(0.103938 -4.40628e-05 0)
(0.104318 0.000183198 0)
(0.104745 0.00034114 0)
(0.105204 0.000620019 0)
(0.105822 0.000851824 0)
(0.106372 0.00113538 0)
(0.106919 0.00143896 0)
(0.107562 0.00181643 0)
(0.108321 0.00219736 0)
(0.109061 0.0026853 0)
(0.109927 0.00315482 0)
(0.11076 0.00368122 0)
(0.111752 0.00421286 0)
(0.112759 0.00476551 0)
(0.113886 0.0053241 0)
(0.115001 0.00588898 0)
(0.099988 -0.000209455 0)
(0.100133 -0.000522198 0)
(0.100318 -0.000807264 0)
(0.100583 -0.000901119 0)
(0.100906 -0.0010445 0)
(0.10116 -0.00100297 0)
(0.101463 -0.00108116 0)
(0.101776 -0.00102271 0)
(0.102081 -0.00108029 0)
(0.102345 -0.00100044 0)
(0.102732 -0.000972544 0)
(0.103098 -0.000862375 0)
(0.10344 -0.000837592 0)
(0.10383 -0.000677895 0)
(0.104349 -0.00059481 0)
(0.10472 -0.000405557 0)
(0.105186 -0.000271797 0)
(0.105678 -4.02775e-05 0)
(0.106339 0.000146924 0)
(0.106883 0.000385951 0)
(0.107488 0.000640304 0)
(0.108114 0.000989956 0)
(0.108935 0.00131423 0)
(0.10968 0.00173203 0)
(0.11063 0.00212835 0)
(0.111485 0.00257613 0)
(0.11256 0.00303186 0)
(0.11353 0.00351139 0)
(0.114702 0.0039779 0)
(0.115737 0.00445278 0)
(0.0999866 -0.000233752 0)
(0.100239 -0.000592193 0)
(0.100556 -0.000852288 0)
(0.100942 -0.000957517 0)
(0.101307 -0.00107065 0)
(0.101611 -0.00106077 0)
(0.101899 -0.00114426 0)
(0.10223 -0.00113029 0)
(0.102522 -0.00119228 0)
(0.102807 -0.00113491 0)
(0.103176 -0.00111783 0)
(0.103524 -0.00106012 0)
(0.103875 -0.00104986 0)
(0.104243 -0.000912025 0)
(0.10474 -0.000847543 0)
(0.10507 -0.000714003 0)
(0.105537 -0.000616767 0)
(0.105997 -0.000422863 0)
(0.106666 -0.000255325 0)
(0.107166 -4.73597e-05 0)
(0.107823 0.00016995 0)
(0.108393 0.000465334 0)
(0.109241 0.000708237 0)
(0.109935 0.00104742 0)
(0.11093 0.00138897 0)
(0.111773 0.00180546 0)
(0.112924 0.00224843 0)
(0.113886 0.00271279 0)
(0.115132 0.00313402 0)
(0.116161 0.00354841 0)
(0.0999781 -0.000692499 0)
(0.100351 -0.00135474 0)
(0.1007 -0.00157557 0)
(0.101105 -0.00161977 0)
(0.101325 -0.00168243 0)
(0.101556 -0.00170435 0)
(0.10162 -0.00176539 0)
(0.101847 -0.00177863 0)
(0.101856 -0.00180574 0)
(0.101991 -0.00174112 0)
(0.102041 -0.00168958 0)
(0.102222 -0.00166832 0)
(0.102228 -0.001658 0)
(0.102385 -0.00154294 0)
(0.102454 -0.00146529 0)
(0.102592 -0.00134939 0)
(0.102717 -0.00126607 0)
(0.103021 -0.00114284 0)
(0.103259 -0.00103326 0)
(0.103537 -0.000864632 0)
(0.103802 -0.000659392 0)
(0.104262 -0.000406557 0)
(0.104805 -0.000229432 0)
(0.105501 -1.07302e-05 0)
(0.106241 0.000195853 0)
(0.107117 0.00048705 0)
(0.108037 0.000815681 0)
(0.109126 0.00120844 0)
(0.110278 0.0015582 0)
(0.111635 0.0019332 0)
(0.0990182 -0.000604662 0)
(0.0984586 -0.00113864 0)
(0.0974314 -0.00128258 0)
(0.0960022 -0.00128581 0)
(0.0943775 -0.00129584 0)
(0.0927692 -0.00131505 0)
(0.0911342 -0.00133695 0)
(0.0896152 -0.00133169 0)
(0.0879768 -0.00129758 0)
(0.0864889 -0.00123887 0)
(0.0849807 -0.001215 0)
(0.0835698 -0.00120519 0)
(0.082026 -0.00113066 0)
(0.0807662 -0.00102643 0)
(0.0794313 -0.000990427 0)
(0.0782802 -0.000989425 0)
(0.0770214 -0.000945172 0)
(0.0760764 -0.000824805 0)
(0.0750404 -0.000704501 0)
(0.0743151 -0.000596023 0)
(0.0735246 -0.000530029 0)
(0.0731237 -0.00049873 0)
(0.0725893 -0.000467392 0)
(0.0724524 -0.000356612 0)
(0.0721902 -0.000173193 0)
(0.0724986 8.42886e-05 0)
(0.0727297 0.000337425 0)
(0.0736567 0.000555993 0)
(0.0744356 0.000712873 0)
(0.0759449 0.000816513 0)
(0.0137198 0.00358753 0)
(0.0454988 0.0149402 0)
(0.0388896 0.0154616 0)
(0.0641722 0.0248264 8.73947e-22)
(0.054834 0.0238465 7.00446e-22)
(0.0837606 0.0358579 0)
(0.0643893 0.030217 2.55849e-22)
(0.102372 0.0430931 2.08127e-23)
(0.075114 0.0376209 6.85346e-22)
(0.124937 0.0456165 0)
(0.0690463 0.0154169 0)
(0.0785115 0.021962 0)
(0.0825417 0.0246428 0)
(0.0892562 0.0352673 0)
(0.0931968 0.0331469 0)
(0.103721 0.0451052 1.84869e-22)
(0.10494 0.0412412 4.59259e-23)
(0.121334 0.0541016 -8.13392e-23)
(0.118811 0.044289 -5.1417e-22)
(0.137801 0.0503707 -4.84424e-22)
(0.0864253 0.01883 0)
(0.0909943 0.0232817 0)
(0.0941796 0.0316321 0)
(0.0979671 0.0310812 0)
(0.103661 0.0353889 0)
(0.109396 0.0366913 -1.84867e-22)
(0.112226 0.0407719 -4.59255e-23)
(0.121963 0.0402853 8.13381e-23)
(0.13134 0.0515606 2.68317e-22)
(0.137802 0.0390403 4.84427e-22)
(0.0948536 0.0209079 -3.89853e-22)
(0.0959123 0.0229071 0)
(0.100304 0.0266285 -3.13383e-22)
(0.103789 0.0314815 -2.58341e-22)
(0.108343 0.0327198 -1.82524e-22)
(0.112255 0.0377144 0)
(0.116915 0.04004 0)
(0.122993 0.0348875 1.3181e-22)
(0.132417 0.0412127 2.70532e-22)
(0.140705 0.0400806 4.3307e-22)
(0.0987605 0.0209321 3.89854e-22)
(0.101304 0.0224649 0)
(0.10328 0.0280856 3.13384e-22)
(0.106909 0.0278642 2.58342e-22)
(0.110518 0.0314457 1.82524e-22)
(0.114698 0.0317473 0)
(0.120894 0.0364574 0)
(0.127436 0.0311148 -1.31811e-22)
(0.13124 0.0378705 -2.70533e-22)
(0.138798 0.0350843 -4.3307e-22)
(0.101829 0.0201511 0)
(0.103423 0.0216804 -2.82343e-22)
(0.10654 0.0248784 0)
(0.110102 0.0265481 -1.856e-22)
(0.113309 0.0290017 0)
(0.117347 0.0297319 0)
(0.122558 0.0331872 0)
(0.127609 0.028947 -1.50581e-22)
(0.131638 0.0318172 0)
(0.139728 0.0311385 0)
(0.104191 0.0194917 2.77689e-22)
(0.10638 0.0200699 5.3236e-22)
(0.108772 0.0238749 2.07638e-22)
(0.112084 0.0240021 1.85601e-22)
(0.115309 0.026863 0)
(0.119303 0.0263177 -2.72838e-23)
(0.123842 0.0290798 0)
(0.129111 0.0263181 1.50581e-22)
(0.132719 0.0286338 0)
(0.139107 0.0266704 0)
(0.106506 0.0180929 -2.7769e-22)
(0.108381 0.0190171 -2.50017e-22)
(0.110893 0.0215896 -2.07638e-22)
(0.114159 0.022028 0)
(0.117133 0.0241855 0)
(0.120866 0.024036 2.72839e-23)
(0.124982 0.0260846 0)
(0.129492 0.0237521 0)
(0.13308 0.0243924 0)
(0.138439 0.0231538 0)
(0.10833 0.0168678 0)
(0.110317 0.0173372 -1.97835e-22)
(0.112695 0.0198131 0)
(0.115697 0.0199559 -1.1348e-22)
(0.118569 0.0218761 0)
(0.122018 0.0213292 0)
(0.125842 0.0226615 7.22006e-23)
(0.130054 0.0212999 1.53758e-22)
(0.133383 0.0219101 0)
(0.137691 0.0196318 3.26871e-22)
(0.110032 0.0153183 0)
(0.111892 0.015945 1.97835e-22)
(0.114188 0.0177767 0)
(0.117022 0.0179351 1.1348e-22)
(0.119787 0.0193898 0)
(0.123013 0.0191502 0)
(0.126477 0.0201193 -7.22008e-23)
(0.130083 0.0186503 -1.53758e-22)
(0.133432 0.0186439 0)
(0.137252 0.0169959 -3.26872e-22)
(0.111452 0.0138439 9.22286e-23)
(0.113266 0.0142788 0)
(0.115482 0.0158671 0)
(0.118115 0.0160158 4.17499e-23)
(0.12074 0.0171524 0)
(0.123682 0.0167553 0)
(0.126951 0.0174358 0)
(0.130316 0.0163981 -7.40615e-23)
(0.133267 0.0163343 0)
(0.13642 0.0144103 0)
(0.112704 0.0122933 -7.88439e-24)
(0.114429 0.012768 0)
(0.116535 0.0139799 5.59337e-23)
(0.119 0.0140975 -5.53756e-24)
(0.121536 0.0149752 0)
(0.124272 0.0147252 0)
(0.127209 0.015148 -4.02758e-23)
(0.130224 0.0140864 7.40616e-23)
(0.133073 0.0138706 -1.04766e-22)
(0.135951 0.012303 -1.38989e-22)
(0.113778 0.0107461 -6.65909e-24)
(0.115438 0.0111261 0)
(0.117451 0.0121327 -5.51906e-24)
(0.119743 0.0122509 -4.45722e-24)
(0.122122 0.0129148 1.07545e-23)
(0.124672 0.0126144 1.31905e-23)
(0.127427 0.0129145 6.68218e-26)
(0.130182 0.0120565 -6.95937e-23)
(0.132743 0.011772 4.62683e-24)
(0.135304 0.0102876 6.97514e-24)
(0.114714 0.00928361 -7.76855e-23)
(0.116299 0.00963958 0)
(0.1182 0.0104235 -5.04147e-23)
(0.12035 0.0105142 -3.17553e-23)
(0.122618 0.0110141 -1.07545e-23)
(0.124998 0.0107626 -2.76334e-23)
(0.127505 0.0109139 4.0209e-23)
(0.130035 0.0101159 6.95938e-23)
(0.132456 0.00979017 1.0014e-22)
(0.134804 0.00853156 1.32015e-22)
(0.115552 0.00773415 0)
(0.117066 0.00803361 0)
(0.11886 0.00867046 0)
(0.120854 0.00875313 0)
(0.122978 0.00913022 0)
(0.125202 0.00888566 1.44429e-23)
(0.127542 0.00895764 0)
(0.129871 0.00828844 0)
(0.132109 0.00795154 0)
(0.134275 0.00685633 0)
(0.116322 0.0064427 0)
(0.117746 0.00669653 0)
(0.119448 0.00718267 0)
(0.121293 0.00723426 0)
(0.123309 0.00748584 0)
(0.12537 0.00725033 7.6337e-24)
(0.127552 0.00722737 0)
(0.129701 0.00662879 0)
(0.13182 0.00628111 0)
(0.133826 0.00535535 0)
(0.117071 0.00490176 0)
(0.118337 0.00512941 0)
(0.119962 0.00551466 1.84987e-23)
(0.121579 0.00556911 0)
(0.123505 0.00574086 2.22059e-24)
(0.12535 0.00553983 -7.63371e-24)
(0.127446 0.00547161 0)
(0.129381 0.00497858 -2.99807e-23)
(0.131424 0.0046507 0)
(0.133236 0.00389079 0)
(0.117525 0.00388903 0)
(0.118496 0.00405584 0)
(0.120134 0.00428853 -1.84988e-23)
(0.1214 0.00428135 0)
(0.123337 0.00431114 -2.2206e-24)
(0.124803 0.00409078 0)
(0.126898 0.00393412 0)
(0.128423 0.00348843 2.99809e-23)
(0.130462 0.00314919 0)
(0.131824 0.00252502 0)
(0.113054 0.00220808 -7.15996e-24)
(0.113672 0.00237649 -5.86285e-24)
(0.11543 0.00253284 -4.34667e-24)
(0.116266 0.00255107 0)
(0.118312 0.00253164 -5.6662e-25)
(0.11922 0.00238105 0)
(0.121372 0.00221845 4.23396e-24)
(0.122144 0.00190686 0)
(0.124164 0.00161766 9.94084e-24)
(0.124526 0.00119661 1.30519e-23)
(0.0771647 0.00083209 7.15915e-24)
(0.0779599 0.000790861 5.86212e-24)
(0.0795139 0.00073143 4.34611e-24)
(0.0804121 0.00065076 0)
(0.082091 0.000551707 5.66538e-25)
(0.082833 0.000437223 0)
(0.0844089 0.000298262 -4.23328e-24)
(0.0847154 0.000142834 0)
(0.0859345 -3.17664e-05 -9.93904e-24)
(0.0854765 -0.000206894 -1.30494e-23)
(0.00782203 0.000608835 0)
(0.0121551 0.00598899 0)
(0.00492036 0.00564382 0)
(-0.00181163 0.00703769 0)
(-0.0429357 0.0177253 0)
(-0.0856906 0.0152696 0)
(-0.115531 0.010944 0)
(-0.128448 0.00514667 0)
(-0.135448 0.00265055 0)
(-0.131036 -0.00106389 0)
(-0.124838 -0.00247331 0)
(-0.109278 -0.0045523 0)
(-0.0949767 -0.00574457 0)
(-0.0722727 -0.00718533 0)
(-0.0501281 -0.00745897 0)
(-0.0263706 -0.00691001 0)
(-0.0044022 -0.00609761 0)
(0.0142603 -0.00485127 0)
(0.0295107 -0.00358094 0)
(0.0414944 -0.00243382 0)
(0.050608 -0.00144834 0)
(0.0572311 -0.000588832 0)
(0.0616419 0.000161932 0)
(0.0640349 0.000785566 0)
(0.0646538 0.00125809 0)
(0.0639342 0.00155659 0)
(0.0622771 0.00164939 0)
(0.0601133 0.00157507 0)
(0.05775 0.0013956 0)
(0.0554896 0.00116253 0)
(0.0534254 0.000919198 0)
(0.0516901 0.00069266 0)
(0.050224 0.000501345 0)
(0.0490718 0.00034803 0)
(0.0481317 0.000236224 0)
(0.0474044 0.000153989 0)
(0.0468414 0.000102878 0)
(0.0463552 6.49888e-05 0)
(0.0460738 4.85625e-05 0)
(0.0456565 3.45586e-05 0)
(0.00646092 -0.0160315 0)
(0.013088 -0.00355488 0)
(0.00544982 0.0040943 0)
(-0.0357567 0.028772 0)
(-0.0740292 0.0387585 0)
(-0.103842 0.0337476 0)
(-0.121939 0.0203848 0)
(-0.128273 0.00969795 0)
(-0.131614 0.000113277 0)
(-0.12301 -0.00735951 0)
(-0.116319 -0.0132509 0)
(-0.0984895 -0.0176667 0)
(-0.0840053 -0.0210276 0)
(-0.0607503 -0.0253388 0)
(-0.0390605 -0.0267303 0)
(-0.01419 -0.0255288 0)
(0.00813163 -0.0229285 0)
(0.0272034 -0.0193111 0)
(0.0429724 -0.0156769 0)
(0.0558787 -0.0123905 0)
(0.0662778 -0.00952807 0)
(0.0746561 -0.00701832 0)
(0.08131 -0.00478973 0)
(0.0864688 -0.00282709 0)
(0.0900651 -0.00116422 0)
(0.0923358 0.000150084 0)
(0.0934474 0.00106612 0)
(0.0939119 0.0016126 0)
(0.0939204 0.00186364 0)
(0.0938198 0.00187246 0)
(0.093586 0.00175146 0)
(0.0933971 0.00154266 0)
(0.093148 0.00133575 0)
(0.0929315 0.00110737 0)
(0.0926868 0.0009346 0)
(0.0924196 0.000745639 0)
(0.0922006 0.000633602 0)
(0.091877 0.000484125 0)
(0.0917388 0.000429505 0)
(0.0913606 0.000311852 0)
(0.00135838 -0.0123811 0)
(-0.0157582 0.00818977 0)
(-0.035695 0.0396942 0)
(-0.0529504 0.0587256 0)
(-0.0713897 0.0631328 0)
(-0.0840374 0.0491319 0)
(-0.0957336 0.030638 0)
(-0.0988982 0.0134542 0)
(-0.0999128 -0.000278363 0)
(-0.0919688 -0.0124602 0)
(-0.0836016 -0.0205715 0)
(-0.0693435 -0.0280967 0)
(-0.0553194 -0.0334482 0)
(-0.036935 -0.0396833 0)
(-0.0174775 -0.0424715 0)
(0.00413027 -0.0414345 0)
(0.0241861 -0.0367298 0)
(0.0408253 -0.0304377 0)
(0.0537022 -0.0245532 0)
(0.064141 -0.019475 0)
(0.0726784 -0.0151596 0)
(0.0795019 -0.0115292 0)
(0.0849742 -0.00842465 0)
(0.0898158 -0.00561096 0)
(0.0939901 -0.00303927 0)
(0.0973545 -0.000929367 0)
(0.0995428 0.000525559 0)
(0.100853 0.00129208 0)
(0.101452 0.00156306 0)
(0.101868 0.00150889 0)
(0.102146 0.00133579 0)
(0.102538 0.00109848 0)
(0.102877 0.000918952 0)
(0.103277 0.000738625 0)
(0.103576 0.00065013 0)
(0.10385 0.000537395 0)
(0.104022 0.000507303 0)
(0.104125 0.000418078 0)
(0.104184 0.000408642 0)
(0.104169 0.000326806 0)
(0.00346313 -0.00630108 0)
(-0.0124659 0.0250388 0)
(-0.0150429 0.0357537 0)
(-0.0360269 0.0582252 0)
(-0.0460736 0.0608802 0)
(-0.0536147 0.0500661 0)
(-0.0607708 0.0325261 0)
(-0.0628849 0.0130795 0)
(-0.0625557 -0.00448221 0)
(-0.0549919 -0.0192348 0)
(-0.0450303 -0.0301332 0)
(-0.0319019 -0.037973 0)
(-0.0193472 -0.0445503 0)
(-0.00545455 -0.0522176 0)
(0.00994185 -0.0568055 0)
(0.0260186 -0.0559166 0)
(0.0417401 -0.0496856 0)
(0.0559837 -0.0404702 0)
(0.0659827 -0.0322098 0)
(0.0730249 -0.0258023 0)
(0.0793353 -0.0202825 0)
(0.084796 -0.015514 0)
(0.0884642 -0.0119096 0)
(0.0911278 -0.00913604 0)
(0.0938215 -0.00649484 0)
(0.0970482 -0.00381467 0)
(0.100118 -0.00143024 0)
(0.10258 0.000225515 0)
(0.104021 0.00108086 0)
(0.104788 0.00128757 0)
(0.105017 0.00118256 0)
(0.105193 0.000927173 0)
(0.105277 0.00072443 0)
(0.105511 0.000532322 0)
(0.105697 0.000464847 0)
(0.105972 0.000379166 0)
(0.106141 0.000395741 0)
(0.106344 0.000345143 0)
(0.106423 0.000370592 0)
(0.106542 0.000321354 0)
(0.00901077 -0.00722066 0)
(-0.0164002 0.0192608 0)
(-0.0188147 0.0490632 0)
(-0.0171859 0.0736226 0)
(-0.0126184 0.0750842 0)
(-0.0115051 0.063389 0)
(-0.0158646 0.0417591 0)
(-0.0159467 0.0171213 0)
(-0.0144279 -0.00518442 0)
(-0.00789812 -0.0249539 0)
(0.00173574 -0.0380871 0)
(0.0133932 -0.0463549 0)
(0.0238275 -0.0526642 0)
(0.03479 -0.0605872 0)
(0.0441171 -0.0653566 0)
(0.0534104 -0.0648482 0)
(0.0608313 -0.0586983 0)
(0.0693769 -0.0477843 0)
(0.0771088 -0.0364952 0)
(0.0808236 -0.0289642 0)
(0.0833084 -0.0236696 0)
(0.0872776 -0.0180861 0)
(0.0909957 -0.0128853 0)
(0.0927382 -0.00941595 0)
(0.0931043 -0.00732809 0)
(0.0939765 -0.00550577 0)
(0.0959369 -0.00347395 0)
(0.09875 -0.00151799 0)
(0.101438 -1.95919e-05 0)
(0.103637 0.000798387 0)
(0.104978 0.0010757 0)
(0.105783 0.000955934 0)
(0.106089 0.00073555 0)
(0.106314 0.000476385 0)
(0.106386 0.000350988 0)
(0.106546 0.000244615 0)
(0.106617 0.000257534 0)
(0.106755 0.000229395 0)
(0.106797 0.000265096 0)
(0.106889 0.000234181 0)
(0.00705074 -0.000184925 0)
(-0.011528 0.0499616 0)
(0.00994467 0.0402924 0)
(0.0106562 0.0606251 0)
(0.0196263 0.0590659 0)
(0.0241656 0.0499763 0)
(0.0291109 0.0330976 0)
(0.0328968 0.0111185 0)
(0.0365829 -0.0107947 0)
(0.0421417 -0.0310777 0)
(0.0487631 -0.0453343 0)
(0.0546845 -0.0532129 0)
(0.0628343 -0.0583529 0)
(0.070905 -0.0644133 0)
(0.0759157 -0.0698085 0)
(0.0800857 -0.0685857 0)
(0.0818558 -0.0616686 0)
(0.0814947 -0.0522247 0)
(0.0848455 -0.039994 0)
(0.0882327 -0.0297343 0)
(0.0880946 -0.0245692 0)
(0.0881749 -0.0208262 0)
(0.0906846 -0.0156597 0)
(0.0934778 -0.0104648 0)
(0.0942023 -0.00718556 0)
(0.0935432 -0.00566801 0)
(0.0931284 -0.00471362 0)
(0.0941531 -0.0036277 0)
(0.0963297 -0.00235643 0)
(0.0991565 -0.0012061 0)
(0.101747 -0.000340148 0)
(0.103877 0.000114183 0)
(0.105238 0.000317355 0)
(0.106124 0.000290318 0)
(0.106517 0.000274069 0)
(0.106769 0.000190651 0)
(0.10682 0.000229327 0)
(0.106899 0.000205348 0)
(0.106887 0.000268482 0)
(0.106929 0.00025398 0)
(-0.0564428 -0.00513592 0)
(-0.000578727 0.0137647 0)
(0.00211854 0.0274735 0)
(0.0369356 0.0617363 0)
(0.056663 0.0650425 0)
(0.0697317 0.0585323 0)
(0.0784962 0.0399748 0)
(0.0839855 0.0149075 0)
(0.0869037 -0.00950717 0)
(0.0886005 -0.0306315 0)
(0.0879513 -0.0462573 0)
(0.0876773 -0.0557569 0)
(0.0888822 -0.062436 0)
(0.0949621 -0.0679648 0)
(0.0985438 -0.0713799 0)
(0.096284 -0.0694578 0)
(0.0950706 -0.0597909 0)
(0.0911856 -0.0500393 0)
(0.087715 -0.0414501 0)
(0.0897037 -0.0313382 0)
(0.0918657 -0.0235037 0)
(0.0912441 -0.0196502 0)
(0.0907601 -0.016447 0)
(0.0923708 -0.0118726 0)
(0.0943678 -0.00741199 0)
(0.0951343 -0.00478389 0)
(0.0946296 -0.00396474 0)
(0.0941814 -0.00389213 0)
(0.0945393 -0.00367309 0)
(0.0960515 -0.00309937 0)
(0.0981935 -0.00227911 0)
(0.100644 -0.00150768 0)
(0.102783 -0.000839093 0)
(0.10454 -0.000416927 0)
(0.105672 -9.50279e-05 0)
(0.106413 4.05377e-05 0)
(0.106753 0.000174319 0)
(0.106925 0.000181819 0)
(0.106963 0.000234883 0)
(0.106945 0.000190325 0)
(0.10712 0.038263 0)
(0.077202 0.0159981 0)
(0.0482865 0.0145032 0)
(0.0506961 0.0267598 0)
(0.0711074 0.0335205 0)
(0.0887785 0.0340267 0)
(0.103963 0.023682 0)
(0.113363 0.00608195 0)
(0.118444 -0.0134949 0)
(0.1186 -0.0316044 0)
(0.115966 -0.0466191 0)
(0.113984 -0.0562625 0)
(0.115246 -0.063973 0)
(0.117246 -0.0711711 0)
(0.119073 -0.0716227 0)
(0.113365 -0.0667765 0)
(0.104543 -0.057136 0)
(0.0988874 -0.0453757 0)
(0.0930139 -0.0378021 0)
(0.0899422 -0.0322553 0)
(0.0912573 -0.0257587 0)
(0.093115 -0.0201148 0)
(0.0933704 -0.0163202 0)
(0.0935721 -0.0128803 0)
(0.0948879 -0.00907575 0)
(0.0968957 -0.00578641 0)
(0.0984477 -0.00391855 0)
(0.0992201 -0.00343302 0)
(0.0992763 -0.00362342 0)
(0.0992888 -0.00385214 0)
(0.099545 -0.00372685 0)
(0.100409 -0.00328493 0)
(0.101628 -0.00256243 0)
(0.103114 -0.00184757 0)
(0.104427 -0.00111177 0)
(0.105516 -0.000615315 0)
(0.106194 -0.000154275 0)
(0.10661 4.61327e-05 0)
(0.10679 0.000255277 0)
(0.10686 0.000272018 0)
(0.141186 0.0442327 0)
(0.135822 0.044504 0)
(0.125045 0.0433984 0)
(0.114119 0.0406841 0)
(0.116295 0.0346194 0)
(0.122787 0.0298559 0)
(0.131813 0.0196439 0)
(0.138998 0.00385364 0)
(0.143012 -0.013681 0)
(0.144789 -0.0297323 0)
(0.143541 -0.0443831 0)
(0.140493 -0.0561015 0)
(0.140741 -0.0637985 0)
(0.138324 -0.0694504 0)
(0.130346 -0.0689896 0)
(0.122278 -0.0601702 0)
(0.112495 -0.0500982 0)
(0.10497 -0.0415253 0)
(0.101322 -0.0343085 0)
(0.0985939 -0.0291733 0)
(0.0965697 -0.0250542 0)
(0.0960353 -0.0208392 0)
(0.0964361 -0.0167188 0)
(0.0971698 -0.0129943 0)
(0.0980271 -0.00985536 0)
(0.0992419 -0.00743598 0)
(0.100836 -0.00574321 0)