/*--------------------------------*- C++ -*----------------------------------*\
| =========                 |                                                 |
| \\      /  F ield         | OpenFOAM: The Open Source CFD Toolbox           |
|  \\    /   O peration     | Version:  2112                                  |
|   \\  /    A nd           | Website:  www.openfoam.com                      |
|    \\/     M anipulation  |                                                 |
\*---------------------------------------------------------------------------*/
FoamFile
{
    version     2.0;
    format      ascii;
    arch        "LSB;label=32;scalar=64";
    class       volScalarField;
    location    "0.42";
    object      nut;
}
// * * * * * * * * * * * * * * * * * * * * * * * * * * * * * * * * * * * * * //

dimensions      [0 2 -1 0 0 0 0];

internalField   nonuniform List<scalar> 
1880
(
3.53639e-11
3.72331e-12
5.44789e-13
4.86122e-14
1.43866e-14
1.67981e-13
1.12103e-14
1.80105e-14
2.7269e-15
1.20756e-15
4.61489e-15
5.59579e-15
3.75949e-14
4.88455e-14
1.56641e-13
1.18898e-13
2.56019e-14
2.28878e-13
2.88561e-13
1.02168e-12
1.36704e-12
6.75022e-13
3.74695e-12
4.88766e-12
2.807e-11
3.82859e-11
6.6235e-11
1.97388e-10
3.95177e-11
6.93368e-11
6.40377e-09
6.60578e-09
6.73695e-10
4.22437e-10
5.39155e-11
1.52279e-11
1.1652e-11
2.23976e-12
6.61636e-12
4.95292e-13
2.28132e-11
6.39086e-12
9.38312e-11
1.68734e-11
7.16599e-11
5.17141e-11
5.34267e-11
1.74126e-10
7.8794e-11
6.09125e-11
1.98762e-10
5.53557e-11
1.41223e-10
5.96382e-10
3.20588e-10
6.43501e-10
1.88022e-09
5.47427e-10
2.22266e-09
1.33115e-09
4.25409e-09
5.18805e-10
2.71552e-09
4.3845e-11
6.25675e-10
1.8831e-09
1.61379e-10
6.57662e-10
1.78123e-09
1.55332e-09
6.13007e-11
4.21548e-09
8.53712e-11
2.39159e-09
3.23577e-09
1.71752e-09
2.33947e-09
6.22191e-09
5.84028e-10
4.43724e-09
3.9112e-09
3.05523e-10
9.12482e-09
4.24929e-09
1.87393e-09
1.32311e-08
5.75688e-09
5.45622e-09
1.56235e-08
1.69225e-08
5.29831e-10
1.45569e-09
6.16108e-09
7.5888e-10
1.06597e-09
1.18969e-10
6.69282e-09
1.5191e-09
1.61152e-08
1.43862e-09
4.63954e-09
1.53805e-09
4.74737e-09
2.47118e-09
3.46975e-08
1.28772e-09
2.81557e-08
4.97987e-09
1.67727e-09
6.96438e-09
3.55988e-09
5.03256e-09
7.40948e-09
1.13933e-08
1.18346e-08
1.57513e-08
1.7548e-08
1.87032e-08
2.24715e-08
2.48824e-08
9.66205e-10
9.56068e-10
1.97435e-09
8.36785e-10
9.64151e-11
1.38715e-09
9.54939e-10
2.89797e-09
1.25912e-09
2.76792e-09
1.43813e-09
4.51227e-09
4.57671e-09
4.69011e-09
3.65328e-08
3.61234e-09
2.96156e-08
4.22752e-09
1.47498e-08
5.4953e-09
1.97074e-10
5.7843e-09
2.71542e-09
1.0695e-08
5.19191e-09
1.61788e-08
1.06104e-08
1.902e-08
1.98037e-08
2.83035e-08
3.23642e-10
1.88787e-09
3.19153e-10
3.262e-11
3.07431e-10
6.68967e-11
5.99341e-10
6.05002e-10
1.55036e-09
3.57362e-10
2.53514e-10
1.44924e-11
4.62028e-10
2.44759e-09
3.24935e-10
3.19031e-09
3.75164e-10
3.83274e-09
3.68209e-09
5.19083e-09
3.98778e-09
8.11029e-09
7.22902e-09
9.84126e-09
8.48629e-09
1.22551e-08
1.28634e-08
1.6809e-08
1.91672e-08
2.04737e-08
6.8215e-10
1.2652e-09
6.81512e-10
1.22019e-10
6.49717e-10
4.34318e-10
7.99823e-10
7.20089e-10
4.28372e-10
4.03087e-10
1.24364e-09
1.16765e-10
2.06569e-09
1.33262e-09
2.40461e-09
1.49871e-09
2.41182e-09
2.79215e-09
4.0133e-09
3.71406e-09
5.19627e-09
5.43357e-09
7.10479e-09
8.55249e-09
8.47019e-09
1.15688e-08
1.27335e-08
1.45951e-08
1.7116e-08
1.95548e-08
5.09428e-10
1.15888e-09
7.11248e-10
4.0154e-12
1.22867e-09
1.51224e-10
1.19668e-09
1.07769e-09
1.79533e-09
1.75129e-09
2.53024e-09
8.22276e-10
3.27593e-09
3.43338e-09
3.71462e-09
2.96401e-09
3.87411e-09
4.13114e-09
5.12448e-09
4.63308e-09
6.24709e-09
6.36459e-09
8.17031e-09
8.35202e-09
9.7819e-09
1.11078e-08
1.35158e-08
1.4296e-08
1.80676e-08
1.71359e-08
2.60047e-10
4.22278e-10
4.63094e-10
2.36146e-10
1.18799e-09
3.88686e-10
1.64797e-09
1.22061e-09
2.77675e-09
2.52857e-09
3.19224e-09
1.5678e-09
3.56711e-09
2.72244e-09
3.78264e-09
2.54869e-09
3.96724e-09
4.27962e-09
5.24245e-09
4.6838e-09
6.36618e-09
6.40342e-09
7.80658e-09
8.51435e-09
9.67359e-09
1.06884e-08
1.2887e-08
1.3645e-08
1.65431e-08
1.7111e-08
2.22251e-10
3.65063e-10
7.1447e-10
3.57926e-10
1.52478e-09
8.16719e-10
1.93367e-09
2.09207e-09
3.21925e-09
3.0825e-09
3.2266e-09
2.02289e-09
3.59307e-09
3.25374e-09
4.04334e-09
3.19347e-09
4.37803e-09
4.80697e-09
5.58808e-09
5.0581e-09
6.63295e-09
6.84541e-09
8.10091e-09
8.56038e-09
1.00644e-08
1.07792e-08
1.28909e-08
1.33728e-08
1.62652e-08
1.61584e-08
5.55044e-11
3.17315e-10
8.386e-10
7.39523e-10
1.52651e-09
1.21543e-09
2.05358e-09
2.54166e-09
3.01214e-09
3.35059e-09
2.86916e-09
2.315e-09
3.23642e-09
3.21489e-09
3.8049e-09
3.52474e-09
4.41773e-09
5.20775e-09
5.51556e-09
5.28725e-09
6.56984e-09
7.03802e-09
7.98883e-09
8.63809e-09
9.98141e-09
1.06475e-08
1.23787e-08
1.30319e-08
1.5249e-08
1.58447e-08
1.47552e-10
4.90043e-10
9.89342e-10
1.02268e-09
1.73315e-09
1.54688e-09
2.24442e-09
2.39834e-09
3.10309e-09
2.87424e-09
3.03469e-09
2.60643e-09
3.43604e-09
3.40417e-09
4.10323e-09
3.76175e-09
4.74441e-09
5.18808e-09
5.76032e-09
5.51908e-09
6.72651e-09
7.22683e-09
8.20055e-09
8.64505e-09
1.00762e-08
1.06285e-08
1.21432e-08
1.27358e-08
1.47703e-08
1.53721e-08
1.4057e-10
5.57809e-10
1.0239e-09
1.14953e-09
1.63621e-09
1.74939e-09
2.14841e-09
2.55535e-09
2.57503e-09
2.91852e-09
2.86742e-09
2.83099e-09
3.3821e-09
3.71718e-09
3.96475e-09
4.06596e-09
4.71443e-09
5.44251e-09
5.56511e-09
5.73527e-09
6.7987e-09
7.43838e-09
8.1252e-09
8.7053e-09
9.909e-09
1.05749e-08
1.17139e-08
1.24652e-08
1.40494e-08
1.49106e-08
5.93517e-11
5.59747e-10
1.03469e-09
1.26468e-09
1.78423e-09
1.83823e-09
2.26433e-09
2.4155e-09
2.69652e-09
2.79504e-09
3.03212e-09
3.2082e-09
3.59094e-09
3.80892e-09
4.28009e-09
4.2493e-09
4.97671e-09
5.4062e-09
5.83464e-09
6.05636e-09
6.94555e-09
7.50869e-09
8.33887e-09
8.77036e-09
9.9389e-09
1.05422e-08
1.15847e-08
1.23085e-08
1.37258e-08
1.45735e-08
1.75788e-11
1.41886e-10
6.79875e-10
1.08229e-09
1.41266e-09
1.84154e-09
2.08531e-09
2.36583e-09
2.265e-09
2.68796e-09
2.87859e-09
3.05845e-09
3.49928e-09
3.92123e-09
4.02555e-09
4.28957e-09
4.91169e-09
5.49111e-09
5.64022e-09
6.06587e-09
6.98146e-09
7.57294e-09
8.13064e-09
8.74977e-09
9.75234e-09
1.04354e-08
1.12203e-08
1.19718e-08
1.31794e-08
1.40889e-08
5.58765e-11
9.71798e-10
1.25037e-09
1.40192e-09
1.60231e-09
1.82825e-09
2.03201e-09
2.26927e-09
2.49591e-09
2.71854e-09
2.88119e-09
3.3135e-09
3.54997e-09
3.88424e-09
4.12728e-09
4.40469e-09
4.93996e-09
5.4665e-09
5.81788e-09
6.30908e-09
6.98976e-09
7.50649e-09
8.26886e-09
8.82007e-09
9.73839e-09
1.03864e-08
1.11729e-08
1.18817e-08
1.29354e-08
1.38172e-08
6.98821e-12
9.56695e-13
1.72227e-10
8.63636e-10
1.06936e-09
1.28201e-09
1.38565e-09
1.46818e-09
1.50946e-09
2.11074e-09
2.31876e-09
2.68661e-09
3.24172e-09
3.79958e-09
3.72533e-09
4.29641e-09
4.86263e-09
5.35814e-09
5.60035e-09
6.20445e-09
6.94647e-09
7.38066e-09
7.84998e-09
8.51459e-09
9.34712e-09
9.93667e-09
1.06638e-08
1.13921e-08
1.23381e-08
1.31752e-08
2.01369e-09
2.65832e-09
1.64351e-09
1.6187e-09
1.8852e-09
2.31324e-09
3.053e-09
3.54253e-09
3.43705e-09
2.91436e-09
1.83081e-09
1.21565e-09
5.48459e-10
4.52377e-10
2.02499e-10
7.95927e-11
1.41733e-11
6.95555e-12
7.27781e-12
1.82014e-12
4.54997e-13
1.03629e-12
3.09374e-12
5.75829e-13
5.13615e-12
4.6864e-11
1.10867e-10
2.31653e-10
3.30465e-10
6.26195e-10
5.04847e-09
5.54408e-09
9.3871e-10
1.73643e-10
3.02592e-11
3.70972e-12
6.85147e-13
3.09353e-14
1.25976e-13
7.20137e-13
7.27503e-13
8.31114e-13
1.37681e-12
7.54358e-13
1.18499e-12
2.83523e-12
3.39496e-12
2.69057e-12
2.80228e-12
4.67068e-12
6.45361e-12
6.29895e-12
7.36694e-12
7.79721e-12
6.5451e-12
5.98702e-12
6.46446e-12
6.6675e-12
5.71553e-12
3.57274e-12
3.46702e-11
4.62792e-12
2.44972e-13
1.19807e-14
6.42964e-14
2.75043e-14
2.31927e-15
8.77124e-16
5.82083e-17
9.30109e-16
3.2595e-16
7.78965e-16
1.78819e-15
4.23466e-15
3.2164e-15
2.54819e-15
2.5201e-15
1.38733e-14
3.56832e-14
2.76346e-14
7.3088e-15
9.21064e-15
4.16229e-14
1.14095e-13
1.26063e-13
7.53833e-14
2.50904e-14
1.08349e-14
9.30274e-15
8.02294e-15
5.20233e-09
5.48714e-10
5.04531e-10
2.40915e-10
1.11102e-11
4.93618e-11
2.87279e-12
3.74924e-11
3.7659e-10
1.83804e-09
3.58334e-09
1.54525e-08
8.76573e-09
1.44562e-08
1.26976e-09
2.39715e-08
2.47533e-09
5.76513e-09
2.51595e-10
4.12865e-08
1.46249e-08
1.33332e-08
3.55634e-08
5.71683e-08
5.09115e-09
3.15143e-08
6.47904e-08
6.44243e-08
5.01484e-08
8.87458e-08
5.28704e-08
2.18449e-08
2.50447e-08
4.58213e-08
4.10237e-08
7.65937e-09
4.00345e-08
4.78322e-08
4.36634e-08
1.24642e-08
3.46e-08
3.21525e-08
3.22873e-08
3.4798e-08
3.62366e-08
2.86498e-08
2.97386e-08
4.2389e-08
4.44875e-08
3.63161e-08
3.69848e-08
2.56362e-08
2.62394e-08
3.07196e-08
3.36467e-08
3.1768e-08
2.77216e-08
3.79141e-08
3.87372e-08
2.82958e-08
2.82414e-08
2.5225e-08
2.64275e-08
2.61081e-08
2.88637e-08
3.08585e-08
2.84677e-08
3.30725e-08
3.50015e-08
2.95271e-08
2.94552e-08
2.26675e-08
2.43212e-08
2.54712e-08
2.77278e-08
2.88119e-08
2.77918e-08
2.97817e-08
3.08755e-08
2.9217e-08
2.39882e-08
2.13391e-08
2.33375e-08
2.36774e-08
2.47143e-08
2.65605e-08
2.67597e-08
2.7583e-08
2.86897e-08
2.67185e-08
2.2889e-08
1.99638e-08
2.17306e-08
2.25935e-08
2.3577e-08
2.43564e-08
2.49606e-08
2.61063e-08
2.52938e-08
2.40076e-08
2.01097e-08
1.88876e-08
2.07279e-08
2.12544e-08
2.17574e-08
2.307e-08
2.3398e-08
2.3671e-08
2.30716e-08
2.22222e-08
1.8906e-08
1.79257e-08
1.9551e-08
2.02406e-08
2.06844e-08
2.13655e-08
2.17394e-08
2.20548e-08
2.11814e-08
1.98084e-08
1.73279e-08
1.71013e-08
1.85574e-08
1.9205e-08
1.9492e-08
2.02801e-08
2.0212e-08
2.00883e-08
1.94833e-08
1.83491e-08
1.65959e-08
1.64228e-08
1.77143e-08
1.8251e-08
1.84867e-08
1.88937e-08
1.89948e-08
1.86561e-08
1.80138e-08
1.68168e-08
1.54591e-08
1.57194e-08
1.68283e-08
1.74322e-08
1.75588e-08
1.78935e-08
1.76558e-08
1.72623e-08
1.66461e-08
1.55221e-08
1.51523e-08
1.52501e-08
1.62056e-08
1.65839e-08
1.67916e-08
1.69007e-08
1.67617e-08
1.63104e-08
1.57354e-08
1.47595e-08
1.40118e-08
1.41869e-08
1.51926e-08
1.54555e-08
1.57918e-08
1.55843e-08
1.56202e-08
1.47819e-08
1.4561e-08
1.29481e-08
9.49561e-10
5.95099e-10
1.18501e-09
1.06162e-09
1.69428e-09
1.52309e-09
2.11763e-09
1.78966e-09
2.10748e-09
1.56109e-09
2.47305e-12
2.33845e-12
6.77326e-13
8.27634e-13
4.47577e-14
9.34718e-13
1.75197e-12
5.2939e-12
8.20256e-12
1.00822e-11
4.1509e-14
2.37449e-14
2.87448e-14
3.83004e-15
3.67951e-16
5.12985e-15
1.74714e-14
5.56856e-14
6.43169e-14
5.04884e-14
6.73695e-08
3.8434e-08
1.10988e-09
1.26006e-08
6.37042e-08
4.02539e-08
1.52489e-08
3.0896e-09
7.29713e-10
2.27948e-10
1.1615e-10
7.88468e-11
8.91156e-11
1.16267e-10
4.28196e-10
1.32691e-09
5.64679e-09
3.56047e-08
1.07356e-07
7.24107e-08
1.14862e-08
1.56585e-09
2.5499e-10
4.90118e-11
1.11043e-11
2.99004e-12
1.22772e-12
9.03659e-13
7.66987e-13
3.62574e-13
4.21479e-14
2.90501e-15
8.8477e-14
2.86401e-13
3.68968e-13
2.88812e-13
1.57327e-13
5.73334e-14
2.47965e-14
9.34916e-15
6.77177e-08
2.83581e-08
1.79519e-09
1.31085e-08
2.70814e-08
1.4179e-07
1.43785e-07
1.12291e-08
5.84004e-07
7.03546e-07
3.57743e-08
1.74534e-12
3.05594e-09
7.06586e-09
1.85547e-08
3.10204e-08
3.737e-08
6.31445e-08
7.63014e-08
7.99673e-08
7.5159e-08
6.1384e-08
4.25964e-08
2.42747e-08
1.14326e-08
4.7515e-09
1.94855e-09
9.63365e-10
5.86565e-10
3.7094e-10
1.79827e-10
5.55201e-11
6.05283e-12
2.40667e-13
2.26428e-12
6.02852e-12
7.60893e-12
5.11224e-12
2.88681e-12
6.67246e-13
5.77336e-09
6.6035e-07
9.73971e-07
1.75699e-08
1.06708e-07
1.31537e-08
1.65695e-07
9.13849e-07
1.1439e-06
6.55292e-07
1.25807e-07
6.51298e-09
1.73035e-16
3.26304e-10
7.23112e-10
2.52322e-09
7.24679e-09
1.814e-08
3.90561e-08
5.74638e-08
6.63791e-08
6.59957e-08
5.86319e-08
4.5995e-08
3.32095e-08
2.45156e-08
1.90749e-08
1.46014e-08
1.09887e-08
9.42924e-09
9.17666e-09
7.59047e-09
3.76748e-09
5.24788e-10
3.17466e-12
4.36747e-11
1.43874e-10
1.12615e-10
8.28848e-11
1.48084e-11
3.46418e-08
3.92852e-09
7.8409e-08
1.27992e-07
9.68006e-08
1.46842e-08
5.33018e-07
1.15743e-06
1.4532e-06
1.0203e-06
2.73551e-07
1.91413e-08
4.752e-10
5.59989e-11
1.80732e-10
7.82855e-10
2.83847e-09
8.02876e-09
2.0724e-08
4.47478e-08
6.07733e-08
6.08387e-08
5.65617e-08
4.76153e-08
3.5192e-08
2.53782e-08
2.14538e-08
1.92655e-08
1.62363e-08
1.28359e-08
1.00861e-08
6.45408e-09
1.98372e-09
8.13564e-10
8.3482e-10
1.8504e-09
3.33716e-09
2.95009e-09
5.19448e-09
9.09675e-10
9.8699e-08
1.18977e-08
1.15765e-08
1.67452e-07
2.31148e-08
2.27287e-07
1.20222e-06
1.61384e-06
1.76166e-06
1.31047e-06
5.4566e-07
7.11406e-08
5.57671e-09
4.2238e-10
5.73798e-11
1.68259e-11
1.49388e-09
8.76661e-09
1.71848e-08
3.42637e-08
6.06517e-08
6.29239e-08
5.16603e-08
3.92865e-08
2.6598e-08
1.85542e-08
1.28537e-08
7.44341e-09
2.79941e-09
9.75504e-10
1.29087e-10
6.87324e-09
1.27863e-08
9.98927e-10
6.48245e-11
2.46995e-12
9.66652e-12
5.17477e-11
2.74748e-10
8.8568e-10
2.0882e-07
6.13587e-08
1.3117e-07
1.65393e-07
1.47669e-08
1.26781e-08
3.0703e-07
1.05703e-06
1.59357e-06
1.33041e-06
6.06575e-07
1.26559e-07
2.50923e-08
7.77504e-09
2.65144e-09
1.6985e-10
1.13118e-10
1.02915e-08
3.92463e-08
4.71764e-08
5.70334e-08
5.32123e-08
3.70791e-08
2.56913e-08
1.44094e-08
1.05173e-08
1.12762e-08
8.72996e-09
3.77305e-09
1.47496e-10
9.15341e-11
1.35433e-08
4.15435e-08
7.14379e-10
1.60413e-10
1.69777e-12
6.45567e-11
1.42107e-10
3.46598e-10
4.59111e-10
1.16801e-08
5.51268e-08
1.99222e-07
2.5143e-07
6.70156e-08
3.12892e-08
6.98901e-07
1.50831e-06
1.87153e-06
1.56972e-06
7.86112e-07
2.35119e-07
9.57639e-08
4.79633e-08
1.95743e-08
1.42123e-09
1.76183e-10
9.81204e-09
5.37094e-08
5.85783e-08
4.84028e-08
2.71439e-08
5.01755e-09
6.22171e-09
1.32347e-08
1.61145e-08
1.66289e-08
1.10092e-08
7.55039e-09
1.00072e-08
2.80977e-09
3.01223e-10
9.88877e-10
3.10412e-09
2.02948e-11
2.62663e-09
4.14234e-09
1.39473e-10
7.38286e-09
4.7285e-09
1.7519e-08
2.75459e-08
2.08093e-10
1.2436e-07
1.876e-07
5.33e-08
1.09505e-08
9.28087e-07
1.84413e-06
1.82048e-06
1.1859e-06
4.88118e-07
2.96879e-07
1.59495e-07
4.6665e-08
3.62653e-09
2.77399e-09
4.38084e-08
7.03064e-08
4.27081e-08
2.2626e-08
2.92201e-08
2.25679e-08
1.80105e-08
2.22679e-08
2.31146e-08
2.00164e-08
1.39529e-08
8.1773e-09
7.36934e-09
1.1171e-08
1.30259e-08
1.26817e-08
9.20544e-09
1.72961e-09
5.889e-10
3.50814e-09
4.38415e-09
2.68032e-09
1.64023e-11
6.40658e-07
1.99479e-09
1.05898e-08
1.54906e-09
1.51383e-09
5.51607e-10
2.30883e-08
4.91492e-07
1.43439e-06
1.57014e-06
1.14954e-06
6.06419e-07
4.10275e-07
3.1564e-07
6.29979e-08
6.84661e-10
4.98475e-08
6.52443e-08
4.83552e-08
4.03322e-08
3.4434e-08
3.98815e-08
3.37328e-08
2.23563e-08
2.07954e-08
2.52825e-08
2.44808e-08
1.94853e-08
1.39058e-08
1.03536e-08
9.99967e-09
9.33576e-09
8.03465e-09
4.22227e-09
1.89777e-09
1.63812e-09
1.04739e-10
2.54291e-10
1.89813e-09
7.96962e-10
4.21774e-08
4.60947e-08
1.6304e-08
9.20288e-09
9.31942e-11
2.48163e-08
1.95258e-07
8.07392e-07
1.35215e-06
1.47883e-06
1.2492e-06
9.43636e-07
7.14293e-07
1.49985e-07
8.19204e-09
7.15772e-08
7.89214e-08
6.78057e-08
5.61877e-08
4.8313e-08
4.24553e-08
3.68774e-08
3.57306e-08
2.91372e-08
1.59996e-08
1.39507e-08
1.88039e-08
6.13391e-09
1.6413e-09
3.31698e-09
3.47717e-09
4.42157e-09
9.5925e-09
7.88722e-09
6.46702e-11
4.49105e-09
5.90439e-10
3.48387e-10
3.54775e-11
2.56225e-12
4.32691e-08
2.56203e-08
3.14022e-08
1.98355e-08
1.62874e-09
1.52149e-08
3.84999e-07
9.84507e-07
1.1026e-06
9.88937e-07
8.06552e-07
3.27729e-07
9.44035e-10
5.41693e-08
7.28928e-08
7.45905e-08
6.9457e-08
5.62199e-08
4.44412e-08
4.00323e-08
3.86271e-08
3.26717e-08
2.82864e-08
1.80477e-08
7.1633e-09
1.30319e-08
1.32213e-08
3.21239e-10
1.52949e-08
1.27548e-12
4.0784e-09
4.60109e-09
2.75155e-09
5.72858e-10
2.61492e-09
2.85329e-10
7.35907e-09
1.01683e-08
6.89653e-09
1.14405e-10
3.68255e-08
3.31577e-08
3.31702e-08
3.65615e-08
5.93009e-08
4.60155e-08
2.74288e-08
5.37732e-09
9.58898e-10
3.27766e-09
3.52563e-08
3.95043e-08
6.02612e-08
5.79726e-08
5.81386e-08
5.4497e-08
4.86895e-08
4.4534e-08
4.18723e-08
3.90579e-08
3.27936e-08
2.43283e-08
2.44627e-08
2.03714e-08
4.38572e-09
4.82285e-10
9.65829e-09
1.41939e-08
1.36206e-08
1.23549e-08
5.19298e-09
9.97738e-11
2.39707e-09
1.66753e-09
7.26111e-08
1.01954e-07
2.52822e-08
2.51901e-09
2.56609e-08
2.73296e-08
3.00957e-08
3.14438e-08
2.87823e-08
3.14681e-08
4.52662e-08
5.24936e-08
5.33945e-08
5.31801e-08
5.76233e-08
6.07119e-08
5.98016e-08
5.68129e-08
5.97735e-08
5.43e-08
4.83202e-08
4.9119e-08
4.28563e-08
4.01255e-08
4.04657e-08
3.48055e-08
3.05186e-08
2.63641e-08
2.31748e-08
2.3146e-08
2.05813e-08
1.84588e-08
1.75092e-08
1.51067e-08
1.04852e-08
7.32579e-09
7.73189e-09
7.05359e-09
8.2141e-09
8.31045e-09
8.70519e-09
4.55985e-09
2.03138e-09
3.55447e-09
8.91394e-10
9.34581e-09
2.99487e-08
2.64858e-08
2.67626e-08
3.20214e-08
3.76717e-08
4.66714e-08
5.08323e-08
5.11467e-08
5.23449e-08
5.34904e-08
4.8817e-08
5.10056e-08
5.34663e-08
4.80507e-08
3.86479e-08
4.13467e-08
4.05917e-08
3.45951e-08
3.39941e-08
3.31642e-08
2.87395e-08
2.57378e-08
2.36948e-08
2.20497e-08
1.96965e-08
1.79171e-08
1.43909e-08
1.29848e-08
6.45372e-09
2.90285e-09
3.75736e-09
1.59165e-09
4.08053e-08
1.29547e-08
1.67569e-09
1.53037e-09
2.11323e-08
5.24648e-08
4.71216e-11
6.75583e-10
2.54566e-08
2.24816e-08
2.60714e-08
3.1461e-08
3.18661e-08
3.75622e-08
4.15084e-08
4.14652e-08
4.40521e-08
4.51005e-08
4.47319e-08
4.5667e-08
4.56683e-08
4.328e-08
3.80814e-08
3.11489e-08
3.49538e-08
3.48588e-08
2.89933e-08
2.867e-08
2.7017e-08
2.25678e-08
2.12159e-08
2.12104e-08
1.66318e-08
1.13125e-08
1.24556e-08
1.21472e-08
9.72051e-09
2.04871e-09
1.70254e-09
5.24792e-09
1.48136e-09
1.71331e-09
5.15721e-09
7.39703e-10
8.35522e-11
2.30124e-10
8.92101e-10
1.27965e-09
2.43381e-08
2.26294e-08
2.58181e-08
3.07177e-08
3.01851e-08
3.17353e-08
3.35151e-08
3.34815e-08
3.56651e-08
3.65384e-08
3.89339e-08
3.8456e-08
3.80654e-08
3.73003e-08
3.48726e-08
2.94874e-08
2.63318e-08
3.08346e-08
2.92364e-08
2.39216e-08
2.37667e-08
2.35378e-08
2.05318e-08
1.92083e-08
1.73e-08
1.45405e-08
1.2749e-08
1.1769e-08
1.23947e-08
9.96382e-09
8.21119e-09
6.81007e-09
5.02434e-09
4.03205e-09
6.48142e-09
7.32266e-10
2.57677e-08
1.84565e-11
4.29595e-09
3.49253e-08
2.20689e-08
2.15285e-08
2.4135e-08
2.81738e-08
2.85405e-08
2.7356e-08
2.74301e-08
2.79617e-08
3.08104e-08
3.09419e-08
3.24574e-08
3.21079e-08
3.19604e-08
3.12831e-08
2.91924e-08
2.86666e-08
2.62779e-08
2.28313e-08
2.5569e-08
2.50878e-08
2.16737e-08
2.11896e-08
2.05127e-08
1.78287e-08
1.62441e-08
1.62978e-08
1.51833e-08
1.18607e-08
9.67129e-09
8.82762e-09
6.60154e-09
6.11192e-09
2.10374e-09
4.32182e-11
1.85753e-10
3.1887e-09
5.77381e-11
3.44411e-08
2.2791e-10
2.12127e-09
2.04845e-08
1.99107e-08
2.21147e-08
2.47172e-08
2.56474e-08
2.47986e-08
2.36367e-08
2.40659e-08
2.55649e-08
2.73371e-08
2.74386e-08
2.76431e-08
2.61308e-08
2.60299e-08
2.49242e-08
2.40817e-08
2.47135e-08
2.26559e-08
2.02063e-08
2.24242e-08
2.2127e-08
1.91323e-08
1.80849e-08
1.81941e-08
1.68154e-08
1.41201e-08
1.31026e-08
1.1131e-08
9.60391e-09
8.50657e-09
6.86159e-09
6.72164e-09
6.52362e-09
3.66387e-09
2.16867e-09
2.5489e-09
1.58589e-09
2.09011e-10
2.58509e-09
3.31225e-09
1.89457e-08
1.91675e-08
2.01837e-08
2.16188e-08
2.19806e-08
2.16515e-08
2.09304e-08
2.07528e-08
2.19336e-08
2.29481e-08
2.31243e-08
2.39673e-08
2.32788e-08
2.12747e-08
2.21084e-08
2.13864e-08
1.97496e-08
2.12757e-08
2.14841e-08
1.94893e-08
1.95806e-08
1.97379e-08
1.85143e-08
1.69467e-08
1.63955e-08
1.46684e-08
1.30892e-08
1.18752e-08
1.1229e-08
9.99972e-09
7.92571e-09
5.89436e-09
5.56117e-09
5.03276e-09
5.20489e-09
3.76817e-09
2.91342e-09
2.25836e-09
2.53539e-09
2.07549e-09
1.75122e-08
1.72535e-08
1.79408e-08
1.91868e-08
1.92476e-08
1.85765e-08
1.84077e-08
1.83915e-08
1.84594e-08
1.93191e-08
2.01051e-08
1.93408e-08
1.97134e-08
1.96044e-08
1.79917e-08
1.83552e-08
1.86072e-08
1.78194e-08
1.86122e-08
1.90378e-08
1.83446e-08
1.79231e-08
1.78897e-08
1.65162e-08
1.50482e-08
1.42384e-08
1.343e-08
1.16187e-08
9.5839e-09
8.23562e-09
7.81161e-09
7.06081e-09
6.13498e-09
4.40294e-09
3.2683e-09
1.98129e-09
2.0894e-09
1.80536e-09
2.75262e-09
3.10443e-09
1.62762e-08
1.62586e-08
1.64362e-08
1.66681e-08
1.6821e-08
1.6365e-08
1.57095e-08
1.59701e-08
1.63624e-08
1.63233e-08
1.68857e-08
1.71717e-08
1.6374e-08
1.65345e-08
1.63688e-08
1.5495e-08
1.6035e-08
1.67833e-08
1.65808e-08
1.71129e-08
1.79442e-08
1.73795e-08
1.63961e-08
1.58876e-08
1.5131e-08
1.35268e-08
1.19571e-08
1.08258e-08
9.99333e-09
8.58823e-09
7.20948e-09
5.59927e-09
5.00327e-09
4.16763e-09
4.0428e-09
3.16851e-09
2.91638e-09
2.41184e-09
2.47204e-09
2.34813e-09
1.48084e-08
1.45764e-08
1.45416e-08
1.4695e-08
1.44691e-08
1.40444e-08
1.3818e-08
1.35438e-08
1.37871e-08
1.43993e-08
1.43334e-08
1.45588e-08
1.48193e-08
1.39746e-08
1.37594e-08
1.42099e-08
1.37274e-08
1.37219e-08
1.46886e-08
1.47454e-08
1.41874e-08
1.37979e-08
1.3084e-08
1.15148e-08
9.94936e-09
8.7187e-09
7.58279e-09
6.03213e-09
4.61252e-09
3.5118e-09
3.0211e-09
2.47135e-09
2.1208e-09
1.37203e-09
1.1388e-09
5.90305e-10
9.19013e-10
8.26372e-10
1.5852e-09
1.82363e-09
1.41259e-08
1.381e-08
1.34472e-08
1.3142e-08
1.2897e-08
1.24827e-08
1.21329e-08
1.22456e-08
1.24182e-08
1.2749e-08
1.33971e-08
1.34571e-08
1.31898e-08
1.29404e-08
1.16238e-08
9.64642e-09
8.15906e-09
6.17981e-09
3.95172e-09
2.48198e-09
1.51688e-09
6.92629e-10
2.78207e-10
1.07395e-10
4.07782e-11
7.76644e-12
1.42071e-12
1.86138e-13
8.30175e-13
1.33889e-12
3.46294e-12
3.39349e-12
9.2696e-12
1.64387e-11
4.84638e-11
8.98569e-11
1.80083e-10
2.16294e-10
2.87647e-10
2.31485e-10
1.2506e-08
1.22745e-08
1.19726e-08
1.16904e-08
1.13206e-08
1.09677e-08
1.07798e-08
1.06924e-08
1.08263e-08
1.10248e-08
1.07457e-08
9.9442e-09
8.38315e-09
5.77775e-09
3.01446e-09
1.04191e-09
1.26017e-10
1.33077e-13
9.23938e-11
3.52778e-10
6.61538e-10
8.85312e-10
8.79165e-10
7.84643e-10
6.32732e-10
4.45347e-10
2.57667e-10
1.33089e-10
5.93927e-11
2.33528e-11
6.13933e-12
9.29843e-13
8.09054e-14
6.536e-13
3.58526e-12
5.71555e-12
1.38312e-11
1.56435e-11
2.49451e-11
2.15587e-11
1.55525e-09
1.53681e-09
1.58549e-09
1.74552e-09
1.90014e-09
2.01912e-09
2.1446e-09
2.26133e-09
2.31946e-09
2.29394e-09
2.07312e-09
1.63208e-09
1.10259e-09
5.62708e-10
1.72116e-10
1.73689e-11
1.08629e-12
5.385e-11
2.0329e-10
3.15753e-10
3.4108e-10
3.21338e-10
2.53394e-10
1.74674e-10
1.12183e-10
7.38339e-11
4.20337e-11
1.88533e-11
5.45411e-12
1.26955e-12
1.85591e-13
3.45269e-14
1.1366e-13
5.3115e-13
1.8643e-12
3.18255e-12
4.70219e-12
4.14576e-12
3.69996e-12
1.53847e-12
1.22267e-11
1.26818e-11
1.61155e-11
2.31403e-11
3.2008e-11
4.16263e-11
5.26757e-11
6.4334e-11
7.61618e-11
8.78643e-11
8.96048e-11
7.71075e-11
5.93902e-11
3.44499e-11
1.0993e-11
1.05623e-12
7.3939e-13
9.82642e-12
3.18972e-11
5.10128e-11
5.60977e-11
5.16413e-11
3.80844e-11
2.25929e-11
1.0809e-11
4.63451e-12
1.77517e-12
4.76549e-13
2.90758e-14
2.68373e-15
9.91059e-14
2.76036e-13
5.62265e-13
7.1555e-13
9.35165e-13
8.30379e-13
8.7104e-13
5.67282e-13
4.76668e-13
2.19366e-13
4.44819e-14
2.40986e-14
3.89002e-14
7.40342e-14
1.38169e-13
2.37028e-13
3.69365e-13
5.57299e-13
7.99571e-13
1.10236e-12
1.42966e-12
1.54339e-12
1.4537e-12
1.1365e-12
3.22653e-13
3.37554e-14
7.29853e-13
3.21362e-12
5.86721e-12
5.67938e-12
2.68498e-12
6.10966e-13
5.02791e-14
2.58601e-15
6.84799e-14
1.61736e-13
2.46422e-13
2.87354e-13
2.9733e-13
2.3304e-13
1.65973e-13
1.03498e-13
6.73488e-14
3.91525e-14
2.32839e-14
1.10586e-14
5.63542e-15
1.50233e-15
1.37436e-15
8.79794e-15
)
;

boundaryField
{
    inlet
    {
        type            calculated;
        value           nonuniform List<scalar> 
20
(
1.75758e-34
2.15177e-32
2.45233e-33
1.33324e-33
4.79309e-35
3.43193e-34
4.81224e-36
1.70464e-33
1.70581e-33
3.1532e-33
3.00011e-33
1.99144e-33
9.32257e-34
1.13025e-34
6.5105e-36
1.63219e-34
9.44999e-35
6.03417e-33
6.21097e-33
1.4866e-34
)
;
    }
    outlet
    {
        type            calculated;
        value           nonuniform List<scalar> 
27
(
1.49104e-33
4.471e-37
3.4938e-33
1.27223e-33
4.55873e-33
2.55647e-33
2.72851e-34
3.56711e-32
1.88357e-35
5.18276e-33
1.858e-32
8.98127e-33
1.54182e-32
1.18239e-32
1.02253e-32
1.76088e-33
1.25294e-35
8.18915e-36
2.61069e-35
3.9578e-36
6.24067e-36
2.09039e-35
2.67158e-35
4.60029e-34
4.22309e-33
1.77189e-32
4.42277e-32
)
;
    }
    lowerWall
    {
        type            fixedValue;
        value           uniform 0;
    }
    upperWall
    {
        type            fixedValue;
        value           uniform 0;
    }
    defaultFaces
    {
        type            empty;
    }
}


// ************************************************************************* //
