/*--------------------------------*- C++ -*----------------------------------*\
| =========                 |                                                 |
| \\      /  F ield         | OpenFOAM: The Open Source CFD Toolbox           |
|  \\    /   O peration     | Version:  2112                                  |
|   \\  /    A nd           | Website:  www.openfoam.com                      |
|    \\/     M anipulation  |                                                 |
\*---------------------------------------------------------------------------*/
FoamFile
{
    version     2.0;
    format      ascii;
    arch        "LSB;label=32;scalar=64";
    class       volScalarField;
    location    "0.42";
    object      p;
}
// * * * * * * * * * * * * * * * * * * * * * * * * * * * * * * * * * * * * * //

dimensions      [0 2 -2 0 0 0 0];

internalField   nonuniform List<scalar> 
1880
(
0.00314298
0.00300927
0.00291626
0.00286853
0.00283923
0.00281892
0.00279997
0.00278187
0.00276733
0.00275413
0.0027458
0.00273889
0.00273841
0.00273647
0.0027429
0.002753
0.00276376
0.00279002
0.00281275
0.00284823
0.00289484
0.0029401
0.00300336
0.00307609
0.00314839
0.00322977
0.00331969
0.00336574
0.00345746
0.00343594
0.00296334
0.00293111
0.00289067
0.00285439
0.00282469
0.00280339
0.00278585
0.00277113
0.00275739
0.0027467
0.00273465
0.0027312
0.00272451
0.00272595
0.00272782
0.00273847
0.00274585
0.00276884
0.00278813
0.0028201
0.00286269
0.00290007
0.00295728
0.00302355
0.00307982
0.00316579
0.00322693
0.00328835
0.00336629
0.00343565
0.0029298
0.0029088
0.00287842
0.00284713
0.00281904
0.00279709
0.00277865
0.00276308
0.00275025
0.00273837
0.00272662
0.00272052
0.00271282
0.00271181
0.00271007
0.00271821
0.00272191
0.00273865
0.00275432
0.00277598
0.00280989
0.00283543
0.00288153
0.00292764
0.00296857
0.00302467
0.00307395
0.00311055
0.00315582
0.00319489
0.00287287
0.00285939
0.00284165
0.00282239
0.00280049
0.00278256
0.0027631
0.00274902
0.00273524
0.00272396
0.00271174
0.00270328
0.00269586
0.00268942
0.002688
0.00268847
0.00269237
0.00269861
0.00270981
0.00272404
0.00274455
0.00276097
0.00279191
0.0028177
0.00284254
0.00287511
0.002896
0.00290597
0.00292205
0.00291448
0.0028441
0.00283398
0.00282045
0.00280655
0.00278865
0.00277215
0.00275302
0.00273786
0.00272326
0.00271122
0.00269738
0.00268762
0.00267781
0.0026689
0.00266335
0.00265991
0.00265911
0.00265812
0.00266307
0.00266891
0.00267725
0.00268514
0.0026973
0.00270974
0.00271594
0.0027231
0.00271942
0.00270908
0.00268399
0.00264501
0.0028163
0.00280756
0.00279623
0.00278549
0.00277112
0.00275648
0.00273898
0.0027226
0.00270863
0.00269422
0.00268041
0.0026678
0.00265713
0.00264453
0.00263559
0.00262809
0.00262187
0.00261488
0.00261212
0.00260998
0.00260844
0.0026037
0.00260302
0.0025996
0.00258829
0.00257444
0.00255141
0.00251262
0.00246458
0.00239707
0.00279488
0.00278777
0.0027779
0.00276899
0.00275653
0.00274331
0.00272646
0.00270954
0.00269479
0.00267887
0.00266354
0.00264873
0.00263576
0.00262016
0.00260711
0.00259567
0.00258379
0.00257091
0.00256043
0.00255105
0.00253886
0.00252394
0.00250969
0.00249204
0.00246581
0.00243409
0.00239027
0.00233349
0.00226314
0.00217163
0.00277721
0.00277124
0.00276244
0.00275371
0.00274261
0.00272935
0.00271352
0.00269545
0.00268017
0.00266269
0.00264541
0.00262875
0.00261289
0.00259445
0.00257762
0.00256155
0.00254484
0.0025258
0.00250839
0.00249096
0.00247001
0.00244492
0.00241889
0.00238843
0.00234908
0.00230011
0.00224193
0.00216757
0.00207915
0.00197051
0.00276305
0.00275824
0.0027499
0.00274115
0.00273036
0.00271699
0.00270132
0.00268222
0.00266609
0.00264693
0.00262765
0.002609
0.0025901
0.00256899
0.00254797
0.00252774
0.00250622
0.00248119
0.00245717
0.00243249
0.00240305
0.0023689
0.00233208
0.00229019
0.00223881
0.00217674
0.00210465
0.00201652
0.00191414
0.0017923
0.00275254
0.00274819
0.00274038
0.00273104
0.00272011
0.00270607
0.00268995
0.00266998
0.0026523
0.00263181
0.00261017
0.0025894
0.00256778
0.00254338
0.00251888
0.00249436
0.0024681
0.00243758
0.00240731
0.00237589
0.00233885
0.00229604
0.00225002
0.00219795
0.00213665
0.00206293
0.00197943
0.00188069
0.00176693
0.001635
0.00274527
0.00274149
0.00273382
0.00272365
0.00271197
0.00269685
0.00267981
0.00265872
0.00263937
0.0026174
0.00259331
0.00257053
0.00254607
0.00251856
0.00249062
0.00246192
0.00243133
0.00239559
0.00235943
0.00232216
0.00227796
0.00222739
0.00217341
0.00211257
0.00204245
0.00195953
0.00186638
0.00175901
0.00163669
0.00149727
0.00274186
0.00273806
0.00273029
0.0027191
0.00270616
0.00268981
0.0026712
0.00264902
0.00262771
0.00260419
0.00257785
0.00255275
0.00252584
0.00249502
0.00246375
0.00243138
0.00239639
0.00235599
0.00231451
0.00227173
0.00222137
0.00216374
0.00210275
0.00203451
0.00195681
0.00186633
0.00176527
0.00165136
0.00152271
0.00137772
0.00274216
0.00273807
0.00272969
0.00271712
0.00270233
0.00268414
0.00266365
0.00264002
0.00261672
0.0025916
0.00256317
0.00253585
0.00250661
0.00247262
0.00243829
0.00240247
0.00236334
0.00231882
0.00227247
0.0022248
0.00216905
0.00210511
0.00203817
0.0019639
0.00187962
0.001783
0.00167569
0.00155651
0.0014232
0.00127399
0.00274733
0.00274282
0.00273358
0.00271938
0.00270243
0.00268221
0.00265951
0.00263423
0.00260883
0.00258174
0.00255133
0.0025215
0.00248976
0.00245282
0.00241531
0.00237638
0.00233329
0.00228492
0.0022344
0.00218213
0.00212156
0.00205227
0.00198015
0.00190092
0.00181106
0.00170947
0.00159734
0.00147413
0.00133755
0.00118554
0.00275705
0.00275105
0.00273953
0.00272243
0.00270214
0.0026791
0.00265387
0.00262681
0.00259961
0.0025708
0.00253877
0.00250695
0.00247312
0.00243371
0.00239352
0.00235194
0.0023054
0.00225377
0.00219973
0.00214325
0.00207849
0.00200486
0.00192844
0.00184514
0.00175056
0.00164481
0.00152908
0.00140283
0.00126389
0.00110986
0.00277597
0.00276847
0.00275409
0.00273307
0.00270859
0.00268222
0.00265435
0.00262544
0.00259651
0.00256585
0.00253208
0.00249785
0.00246138
0.00241934
0.00237622
0.00233174
0.00228189
0.00222714
0.00217003
0.00210954
0.00204085
0.00196376
0.00188365
0.00179671
0.00169826
0.00158934
0.00147118
0.00134261
0.00120178
0.00104691
0.00279653
0.0027847
0.0027645
0.00273793
0.00270917
0.00268011
0.00265039
0.00262028
0.00259003
0.00255759
0.00252211
0.00248579
0.00244699
0.00240306
0.00235796
0.00231135
0.0022591
0.00220209
0.00214259
0.00207877
0.00200695
0.00192757
0.00184442
0.00175413
0.00165265
0.00154152
0.00142187
0.0012919
0.00114972
0.000993387
0.0028498
0.00282758
0.0027935
0.00275552
0.00271973
0.00268695
0.00265536
0.00262379
0.00259161
0.00255687
0.0025194
0.00248087
0.00243988
0.00239463
0.0023478
0.0022988
0.00224431
0.00218521
0.00212308
0.00205553
0.00198058
0.00189913
0.00181291
0.00171939
0.00161588
0.00150331
0.00138234
0.00125107
0.00110817
0.000952828
0.00287864
0.00284419
0.00279947
0.00275648
0.00271874
0.00268583
0.00265383
0.00262129
0.00258747
0.00255084
0.00251226
0.00247235
0.0024294
0.00238305
0.00233476
0.00228356
0.00222704
0.00216602
0.00210144
0.0020313
0.00195499
0.00187299
0.00178424
0.00168772
0.00158321
0.00147066
0.00134953
0.00121784
0.00107397
0.000917379
0.00305823
0.00291864
0.00282159
0.00276705
0.0027311
0.00269781
0.00266305
0.00262721
0.00259049
0.00255218
0.00251282
0.00247206
0.00242855
0.00238204
0.0023325
0.00227952
0.00222226
0.00216081
0.00209485
0.00202332
0.00194581
0.00186251
0.00177234
0.00167493
0.00156975
0.00145639
0.00133413
0.00120221
0.00105973
0.000906316
0.00354382
0.00358888
0.00325449
0.00289604
0.00228021
0.00169809
0.000927572
5.91771e-05
-0.00120868
-0.00263691
0.00354355
0.00338416
0.00292014
0.00250456
0.00184754
0.00120608
0.000467114
-0.000521726
-0.00160811
-0.0028849
0.00320881
0.00298753
0.00255619
0.00221003
0.00157919
0.00104201
0.000279103
-0.000518867
-0.00155862
-0.00244902
0.00290867
0.00266371
0.00228069
0.0018425
0.00130321
0.000686732
2.95189e-05
-0.000755135
-0.0016462
-0.00246776
0.00259498
0.00234533
0.00194196
0.00155943
0.00105667
0.000520773
-0.000106502
-0.000797969
-0.00158861
-0.00229519
0.00232004
0.00205851
0.00171537
0.00130652
0.000857955
0.000322303
-0.000253668
-0.000894
-0.00158941
-0.00223796
0.00206871
0.00182211
0.00147493
0.00109275
0.000671327
0.000188446
-0.000344467
-0.000929391
-0.00154483
-0.0021272
0.00185151
0.00160539
0.00128772
0.000916737
0.000523668
7.01433e-05
-0.000424227
-0.000965617
-0.00151709
-0.00204872
0.00165711
0.00142343
0.00111529
0.00076556
0.000393334
-2.43233e-05
-0.000480993
-0.000980022
-0.00147713
-0.00195894
0.00149031
0.00126376
0.000973275
0.000641229
0.000290353
-9.99896e-05
-0.000523428
-0.000984051
-0.00143882
-0.00187926
0.00134421
0.00112613
0.000849068
0.000534802
0.000202653
-0.00016228
-0.000556216
-0.000979911
-0.00139785
-0.00180159
0.00121982
0.00100904
0.000746733
0.000448803
0.000134265
-0.000208591
-0.000576999
-0.000968074
-0.00135455
-0.0017292
0.00111169
0.000907125
0.000657402
0.000374782
7.57442e-05
-0.000247366
-0.000592957
-0.000954913
-0.0013132
-0.0016619
0.00102135
0.000823331
0.000586065
0.000317775
3.29379e-05
-0.000272666
-0.000597638
-0.000935276
-0.00127041
-0.00159838
0.00094297
0.000748729
0.000521536
0.000266131
-5.81984e-06
-0.000295794
-0.000602077
-0.000918306
-0.00123279
-0.00154182
0.000880399
0.000691893
0.000474733
0.000231144
-2.91268e-05
-0.000305691
-0.000596213
-0.000895288
-0.00119385
-0.00148855
0.000824556
0.000637427
0.000427447
0.000194379
-5.45794e-05
-0.000318207
-0.000593793
-0.000877279
-0.00116136
-0.00144289
0.000785991
0.000603301
0.000400605
0.000176427
-6.35088e-05
-0.000317413
-0.000582176
-0.000854692
-0.00112891
-0.00140133
0.000748751
0.00056603
0.000367699
0.000152257
-7.75537e-05
-0.000320396
-0.000573368
-0.000834862
-0.00110034
-0.0013651
0.000741228
0.000560027
0.000363238
0.000150932
-7.50751e-05
-0.000314501
-0.000564132
-0.000822781
-0.0010857
-0.00135072
-0.00538949
-0.00575984
-0.00586659
-0.0059749
-0.00607636
-0.00676031
-0.00883777
-0.0114725
-0.0132299
-0.0137926
-0.0131479
-0.011673
-0.00965913
-0.0074633
-0.00522914
-0.00303294
-0.00110279
0.000535118
0.00173591
0.00244977
0.00275815
0.00274912
0.00256663
0.00230332
0.0020227
0.00175893
0.0015259
0.00132516
0.00114968
0.000992808
0.000847031
0.000707086
0.000571373
0.000443181
0.000327944
0.000230509
0.000152151
9.17242e-05
4.65423e-05
1.2168e-05
-0.00553101
-0.00585473
-0.00597126
-0.00586867
-0.00628372
-0.0075775
-0.00991626
-0.012489
-0.0140904
-0.014489
-0.0136933
-0.012081
-0.00997733
-0.00773314
-0.0054958
-0.00328661
-0.00133935
0.000315294
0.0015536
0.0022961
0.00263724
0.00265611
0.00249237
0.00224323
0.00197359
0.00171882
0.00149357
0.0012984
0.00112675
0.000971392
0.000827143
0.000688957
0.000556544
0.000432314
0.000321268
0.000227265
0.000151268
9.22014e-05
4.72263e-05
1.29252e-05
-0.00564832
-0.00592096
-0.00594396
-0.00624292
-0.00686025
-0.00866964
-0.0112573
-0.0138334
-0.0153398
-0.0155655
-0.0145656
-0.0127198
-0.0105117
-0.00818644
-0.00592807
-0.00373411
-0.00177086
-9.36084e-05
0.00118496
0.00198052
0.00236574
0.00242961
0.00230466
0.00208953
0.00184833
0.00161683
0.00141023
0.0012289
0.0010675
0.000921792
0.000786966
0.000660153
0.000540196
0.000428254
0.000327009
0.000238962
0.000165046
0.000105032
5.67492e-05
1.71933e-05
-0.00519931
-0.0053696
-0.00528002
-0.00568811
-0.00719261
-0.009734
-0.0125197
-0.0150703
-0.0165345
-0.0166368
-0.0154567
-0.0134092
-0.0110769
-0.00868519
-0.00641605
-0.0042307
-0.00224277
-0.000556921
0.000728795
0.00156269
0.00199325
0.00211086
0.00203889
0.00187478
0.00167815
0.00148226
0.00130289
0.001143
0.000998157
0.000864492
0.000739843
0.000623193
0.00051416
0.000411431
0.000318594
0.000237139
0.00016745
0.000109262
6.046e-05
1.8843e-05
-0.00548254
-0.00584819
-0.00530908
-0.00583075
-0.00735382
-0.0101851
-0.0130795
-0.0157906
-0.0173548
-0.0174709
-0.0161882
-0.0140046
-0.0116058
-0.00918303
-0.006891
-0.00471124
-0.0027232
-0.00103084
0.000253826
0.00109705
0.00155588
0.0017255
0.0017139
0.00161086
0.00146975
0.00131905
0.00117334
0.00103773
0.000911694
0.000793268
0.000681702
0.000576825
0.000478179
0.000387902
0.000305149
0.0002312
0.000167223
0.000112379
6.43268e-05
2.14246e-05
-0.00452669
-0.0053114
-0.00434604
-0.00512335
-0.00712864
-0.0102055
-0.0132429
-0.0160137
-0.0176141
-0.017727
-0.0164228
-0.0142472
-0.0118758
-0.00950809
-0.00723753
-0.00508403
-0.00311893
-0.00146765
-0.000214325
0.000618824
0.00110039
0.00132234
0.00137445
0.00133579
0.00125245
0.00114882
0.00103851
0.000928473
0.000822018
0.000720181
0.000623353
0.000531838
0.000445377
0.000363964
0.000288572
0.000221218
0.000161976
0.000110507
6.39851e-05
2.14717e-05
-0.00462359
-0.0054872
-0.00447392
-0.00486537
-0.00672815
-0.00983504
-0.0128356
-0.0155389
-0.0171195
-0.0172823
-0.0160603
-0.0140395
-0.0118358
-0.00960284
-0.00739761
-0.0052951
-0.00339735
-0.00181254
-0.000617922
0.000169106
0.00064923
0.000920755
0.00104056
0.00106651
0.00103891
0.000979283
0.000901824
0.000816584
0.00073
0.000644845
0.000562128
0.000482464
0.000406874
0.000335152
0.000267997
0.000206528
0.00015162
0.000104076
6.06489e-05
2.07376e-05
-0.0049956
-0.00386775
-0.00363415
-0.00429362
-0.0063649
-0.00918662
-0.0119032
-0.0143476
-0.0158241
-0.0160811
-0.0151347
-0.0134319
-0.0114886
-0.00943813
-0.00734013
-0.00532565
-0.00354049
-0.00207598
-0.000962237
-0.000202399
0.000279252
0.000573622
0.000737591
0.000811938
0.000827874
0.000807651
0.000762354
0.000700945
0.000633243
0.000564958
0.000497583
0.000431173
0.000366553
0.00030398
0.000244123
0.000189176
0.000138985
9.52227e-05
5.49212e-05
1.78025e-05
-0.00385395
-0.0043341
-0.00462848
-0.00477281
-0.00608585
-0.00865349
-0.011061
-0.0131436
-0.0144398
-0.0147262
-0.0139778
-0.0125521
-0.0108408
-0.0089655
-0.00701734
-0.00516142
-0.00354432
-0.00223633
-0.00124498
-0.000537788
-4.54552e-05
0.000283076
0.000484707
0.000589931
0.000630984
0.000634312
0.00061337
0.000575095
0.000527501
0.000476675
0.000425112
0.000373056
0.000320483
0.000267609
0.000216315
0.000169326
0.000126781
8.72182e-05
5.08195e-05
1.69577e-05
-0.00338747
-0.00391109
-0.00420936
-0.00481591
-0.00614356
-0.00822724
-0.0102158
-0.0119098
-0.012956
-0.0131752
-0.0125833
-0.0113791
-0.00985131
-0.00818113
-0.00646454
-0.00485387
-0.0034693
-0.00233712
-0.00144985
-0.000794127
-0.000325061
3.40437e-06
0.000223886
0.000360913
0.000434715
0.000464162
0.000464547
0.000445341
0.000415988
0.00038231
0.000345835
0.000307311
0.000267202
0.000225778
0.000184007
0.000144439
0.000108524
7.56796e-05
4.45927e-05
1.45595e-05
-0.00316217
-0.00370056
-0.00427014
-0.00501355
-0.00607932
-0.00758456
-0.00910017
-0.0103707
-0.01117
-0.0113685
-0.0109282
-0.00996241
-0.00871216
-0.00732641
-0.00590802
-0.00457661
-0.00341095
-0.00243151
-0.0016349
-0.00101491
-0.000559065
-0.000235224
-1.15815e-05
0.000134916
0.000226853
0.000283057
0.000311988
0.000317671
0.000308722
0.000291749
0.000269115
0.000242629
0.000213871
0.000183301
0.000151792
0.000123449
9.46282e-05
6.65964e-05
3.96257e-05
1.33439e-05
-0.00293069
-0.00349813
-0.00409209
-0.00481042
-0.0056916
-0.00679081
-0.00794167
-0.0089288
-0.0095643
-0.00973842
-0.00942956
-0.00869294
-0.00770299
-0.0065944
-0.00545112
-0.00434948
-0.00335765
-0.00249976
-0.00178146
-0.00121413
-0.000786378
-0.000466116
-0.000228403
-5.96506e-05
5.27445e-05
0.000126511
0.000173336
0.000198442
0.000207509
0.000205319
0.000195424
0.000180234
0.000161284
0.000139236
0.000114893
9.18398e-05
7.14585e-05
5.14078e-05
2.92723e-05
8.81436e-06
-0.00276579
-0.00331247
-0.00389042
-0.00455055
-0.00529955
-0.00614967
-0.00703337
-0.00778401
-0.0082719
-0.00840967
-0.0081858
-0.0076351
-0.006865
-0.00597821
-0.00504673
-0.00413292
-0.00328696
-0.00254099
-0.00190157
-0.00137565
-0.000967955
-0.000657199
-0.000417773
-0.000236337
-0.000104971
-1.35709e-05
4.86359e-05
8.93859e-05
0.00011351
0.000124015
0.000124974
0.000120237
0.00011254
0.000102206
8.87734e-05
7.23211e-05
5.81105e-05
4.25004e-05
2.52984e-05
7.96545e-06
-0.00261849
-0.00313053
-0.0036733
-0.00426702
-0.00491438
-0.00560109
-0.00628322
-0.00685801
-0.00723482
-0.00734868
-0.00719046
-0.00677617
-0.00616646
-0.00545281
-0.00469409
-0.00393274
-0.00321081
-0.00255915
-0.00199245
-0.00151481
-0.00112858
-0.000824288
-0.000584356
-0.000398093
-0.000258334
-0.000155331
-8.05462e-05
-2.78446e-05
8.3222e-06
3.21769e-05
4.7104e-05
5.49659e-05
5.73218e-05
5.55498e-05
5.00847e-05
4.27724e-05
3.25396e-05
2.41023e-05
1.4399e-05
4.89243e-06
-0.00249236
-0.00296095
-0.00345831
-0.00399039
-0.00455558
-0.00512899
-0.00567121
-0.00612291
-0.00641816
-0.00651245
-0.00639353
-0.00607079
-0.00558918
-0.00501114
-0.00438532
-0.00374802
-0.00313526
-0.00257033
-0.00206332
-0.0016243
-0.00126214
-0.00097173
-0.000738268
-0.000549877
-0.000401431
-0.00028661
-0.000197664
-0.000129675
-7.93658e-05
-4.32415e-05
-1.73756e-05
5.48204e-07
1.20998e-05
1.88687e-05
2.1917e-05
2.24651e-05
1.99392e-05
1.47301e-05
1.03772e-05
3.25436e-06
-0.002375
-0.00280118
-0.00325356
-0.00373313
-0.00422827
-0.00471155
-0.00515467
-0.00551782
-0.00575295
-0.00583069
-0.00574284
-0.00549135
-0.0051064
-0.00463363
-0.00411637
-0.00358545
-0.00306061
-0.0025633
-0.00211377
-0.00171912
-0.00138335
-0.00110459
-0.000874288
-0.000683262
-0.000527023
-0.000402728
-0.000304916
-0.000227239
-0.000165788
-0.000118241
-8.20649e-05
-5.46781e-05
-3.40034e-05
-1.89228e-05
-9.12158e-06
-3.65992e-06
-1.51133e-06
-4.10939e-07
5.65014e-07
2.44074e-07
-0.00226528
-0.00265518
-0.003066
-0.00349629
-0.00393156
-0.00434878
-0.00472147
-0.00501907
-0.00521083
-0.00527605
-0.00520986
-0.00501256
-0.00470317
-0.00431731
-0.00388619
-0.00343522
-0.0029859
-0.00255679
-0.0021602
-0.00180174
-0.00148733
-0.00122078
-0.000996845
-0.000807733
-0.000649003
-0.000517703
-0.000410101
-0.000322192
-0.000250455
-0.000192364
-0.000145945
-0.000109332
-8.07344e-05
-5.80906e-05
-3.98457e-05
-2.63207e-05
-1.55528e-05
-7.44487e-06
-2.66777e-06
-8.90587e-07
-0.00216289
-0.00252185
-0.00289489
-0.00328235
-0.00366909
-0.00403238
-0.00435019
-0.00459904
-0.00475849
-0.00481643
-0.00476746
-0.00461134
-0.00436239
-0.00404553
-0.00368526
-0.00330404
-0.00292056
-0.00254709
-0.00219404
-0.0018697
-0.00157932
-0.0013268
-0.00110971
-0.000921235
-0.000757943
-0.000619264
-0.000502803
-0.000405041
-0.00032351
-0.000256079
-0.000200209
-0.000153943
-0.000116078
-8.60941e-05
-6.28897e-05
-4.53973e-05
-3.19414e-05
-2.15372e-05
-1.20094e-05
-3.7712e-06
-0.00206823
-0.00240039
-0.00274106
-0.0030919
-0.00343767
-0.0037571
-0.0040325
-0.00424649
-0.00438278
-0.0044342
-0.00439758
-0.0042741
-0.00407289
-0.00381215
-0.00351249
-0.00319095
-0.00286168
-0.00253651
-0.00222491
-0.00193334
-0.00166579
-0.00142581
-0.00121399
-0.00102698
-0.000861759
-0.000717755
-0.000594187
-0.000488517
-0.000398123
-0.000321442
-0.000257141
-0.000203673
-0.000159271
-0.000122418
-9.16056e-05
-6.65332e-05
-4.59651e-05
-2.9861e-05
-1.61131e-05
-5.25236e-06
-0.00198098
-0.00229099
-0.0026048
-0.00292364
-0.00323442
-0.00351822
-0.00375988
-0.00394584
-0.00406546
-0.00411374
-0.00408757
-0.00398831
-0.00382524
-0.00361178
-0.0033623
-0.00309138
-0.00281101
-0.00252981
-0.00225502
-0.00199243
-0.00174577
-0.00151853
-0.00131238
-0.00112616
-0.000958489
-0.000808844
-0.000676692
-0.000561305
-0.000461611
-0.000375807
-0.000301952
-0.000239082
-0.000186513
-0.00014354
-0.000108644
-8.02634e-05
-5.68433e-05
-3.73704e-05
-2.07641e-05
-6.76373e-06
-0.00190166
-0.00219313
-0.00248408
-0.00277559
-0.00305703
-0.00331147
-0.00352579
-0.00369063
-0.00379771
-0.00384237
-0.00382417
-0.0037457
-0.00361313
-0.00343787
-0.00323212
-0.00300599
-0.0027686
-0.00252728
-0.00228706
-0.00205187
-0.00182486
-0.00160933
-0.00140797
-0.00122153
-0.00105033
-0.000895056
-0.000755804
-0.000632194
-0.000523852
-0.000429979
-0.000349142
-0.000279958
-0.000221031
-0.000171354
-0.000129601
-9.52857e-05
-6.70796e-05
-4.40074e-05
-2.45645e-05
-8.0145e-06
-0.00183035
-0.00210645
-0.00237864
-0.00264747
-0.0029041
-0.00313432
-0.00332658
-0.00347354
-0.00356975
-0.0036119
-0.00359978
-0.00353697
-0.00342982
-0.0032873
-0.00311888
-0.00293261
-0.00273492
-0.00253082
-0.0023233
-0.00211408
-0.00190508
-0.00169978
-0.00150188
-0.00131425
-0.0011389
-0.00097711
-0.000829357
-0.000696516
-0.000578849
-0.000475367
-0.000385116
-0.000307828
-0.000242493
-0.000187761
-0.000142006
-0.000104278
-7.32398e-05
-4.77428e-05
-2.64353e-05
-8.4683e-06
-0.00176671
-0.00203061
-0.00228729
-0.00253696
-0.00277271
-0.00298293
-0.00315728
-0.00328942
-0.00337618
-0.00341519
-0.00340733
-0.00335668
-0.00326988
-0.00315521
-0.00302008
-0.00287028
-0.0027101
-0.00254166
-0.00236526
-0.00218112
-0.00198992
-0.00179406
-0.00159768
-0.00140612
-0.00122421
-0.00105456
-0.000897958
-0.000755467
-0.000628289
-0.000516473
-0.000418827
-0.000334832
-0.00026358
-0.000203702
-0.00015355
-0.000112138
-7.81811e-05
-5.05463e-05
-2.78758e-05
-8.97015e-06
-0.00171118
-0.00196575
-0.00221053
-0.00244468
-0.00266223
-0.00285425
-0.00301282
-0.00313281
-0.00321123
-0.00324633
-0.00324038
-0.00319891
-0.00312859
-0.0030374
-0.00293302
-0.00281862
-0.00269394
-0.00255973
-0.00241438
-0.00225437
-0.00207892
-0.0018908
-0.00169487
-0.00149805
-0.00130729
-0.00112723
-0.000960047
-0.000807592
-0.000670585
-0.000549374
-0.000443903
-0.000353192
-0.000276303
-0.000211793
-0.000158209
-0.000114186
-7.85397e-05
-4.98429e-05
-2.68806e-05
-8.2126e-06
-0.00166313
-0.00191162
-0.00214831
-0.00237136
-0.0025751
-0.00275219
-0.00289619
-0.0030044
-0.00307422
-0.00310446
-0.00309834
-0.00306235
-0.00300464
-0.00293396
-0.00285702
-0.00277613
-0.00268843
-0.00258965
-0.00247223
-0.00233058
-0.00216464
-0.00197962
-0.0017819
-0.00157943
-0.00138028
-0.0011905
-0.00101285
-0.000849193
-0.000702151
-0.000572843
-0.000460821
-0.000364896
-0.000283717
-0.000215805
-0.00015963
-0.000113781
-7.69989e-05
-4.77315e-05
-2.50948e-05
-7.24349e-06
-0.00162223
-0.00186685
-0.00209738
-0.00231069
-0.00250351
-0.00266991
-0.00280423
-0.00290301
-0.00296458
-0.00298873
-0.00298016
-0.00294718
-0.00289854
-0.00284437
-0.00279196
-0.00274266
-0.00269346
-0.00263162
-0.00254143
-0.00241341
-0.0022481
-0.00205585
-0.00184722
-0.00163324
-0.00142332
-0.00122419
-0.00103872
-0.000868824
-0.000716011
-0.000581649
-0.000465654
-0.000366797
-0.000283295
-0.000213518
-0.000156064
-0.000109465
-7.2657e-05
-4.37677e-05
-2.22184e-05
-5.76898e-06
-0.00160977
-0.0018529
-0.00207911
-0.00228699
-0.00247352
-0.00263382
-0.00276249
-0.00285607
-0.00291285
-0.00293337
-0.00292309
-0.00289045
-0.00284429
-0.00279477
-0.00275026
-0.00271237
-0.00267536
-0.00262578
-0.00254673
-0.00242816
-0.00226921
-0.00207932
-0.00186968
-0.00165296
-0.00143911
-0.00123607
-0.00104736
-0.000874985
-0.000720066
-0.000583996
-0.000466541
-0.000366771
-0.000282543
-0.000212402
-0.000154621
-0.000108037
-7.0992e-05
-4.22769e-05
-2.09418e-05
-4.88477e-06
)
;

boundaryField
{
    inlet
    {
        type            zeroGradient;
    }
    outlet
    {
        type            fixedValue;
        value           uniform 0;
    }
    lowerWall
    {
        type            zeroGradient;
    }
    upperWall
    {
        type            zeroGradient;
    }
    defaultFaces
    {
        type            empty;
    }
}


// ************************************************************************* //
