/*--------------------------------*- C++ -*----------------------------------*\
| =========                 |                                                 |
| \\      /  F ield         | OpenFOAM: The Open Source CFD Toolbox           |
|  \\    /   O peration     | Version:  2112                                  |
|   \\  /    A nd           | Website:  www.openfoam.com                      |
|    \\/     M anipulation  |                                                 |
\*---------------------------------------------------------------------------*/
FoamFile
{
    version     2.0;
    format      ascii;
    arch        "LSB;label=32;scalar=64";
    class       volVectorField;
    location    "0.42";
    object      U;
}
// * * * * * * * * * * * * * * * * * * * * * * * * * * * * * * * * * * * * * //

dimensions      [0 1 -1 0 0 0 0];

internalField   nonuniform List<vector> 
1880
(
(0.0988949 0.000572088 0)
(0.0985504 0.00120136 0)
(0.0971711 0.00126668 0)
(0.0959891 0.00138387 0)
(0.0939738 0.00131378 0)
(0.0925253 0.00145158 0)
(0.0904018 0.0013437 0)
(0.0889971 0.00151634 0)
(0.086787 0.00135058 0)
(0.0853479 0.00150899 0)
(0.0830992 0.00130572 0)
(0.0815517 0.00151856 0)
(0.0792436 0.00132723 0)
(0.0776098 0.00150907 0)
(0.075154 0.00133708 0)
(0.073544 0.00155065 0)
(0.0706064 0.00145265 0)
(0.0692505 0.00159347 0)
(0.0655378 0.00156695 0)
(0.0644323 0.00170383 0)
(0.0598997 0.00181424 0)
(0.0586565 0.00206786 0)
(0.0533232 0.00198135 0)
(0.0516412 0.00251264 0)
(0.0454746 0.00237089 0)
(0.042548 0.00339457 0)
(0.0356947 0.00313279 0)
(0.0302364 0.00388636 0)
(0.0237347 0.00379196 0)
(0.0152163 0.0027079 0)
(0.0997094 0.000782866 0)
(0.100515 0.00128038 0)
(0.100536 0.00182207 0)
(0.100894 0.00157631 0)
(0.101335 0.00205839 0)
(0.100791 0.00174378 0)
(0.101726 0.00223201 0)
(0.10049 0.00193581 0)
(0.101641 0.00236107 0)
(0.100273 0.00211252 0)
(0.101138 0.00243548 0)
(0.0998704 0.00235067 0)
(0.100481 0.00240488 0)
(0.0990143 0.00278891 0)
(0.0997152 0.00240426 0)
(0.0978145 0.00315938 0)
(0.0982996 0.00276027 0)
(0.0966563 0.00322557 0)
(0.0963147 0.00353674 0)
(0.0945722 0.00355532 0)
(0.0944604 0.00406036 0)
(0.090918 0.00451546 0)
(0.092362 0.00480184 0)
(0.0864521 0.00541975 0)
(0.088405 0.00658647 0)
(0.0810563 0.00667952 0)
(0.0830945 0.00826206 0)
(0.0728428 0.00935786 0)
(0.0763742 0.010007 0)
(0.0606415 0.0119816 0)
(0.100129 0.000330794 0)
(0.0999445 0.000526906 0)
(0.100752 0.00120772 0)
(0.100466 0.000876933 0)
(0.101421 0.00165501 0)
(0.10092 0.00111257 0)
(0.101859 0.00173527 0)
(0.101272 0.00159346 0)
(0.102066 0.00169983 0)
(0.101588 0.00197731 0)
(0.102182 0.00202786 0)
(0.101751 0.00188442 0)
(0.102338 0.00274278 0)
(0.101486 0.00182525 0)
(0.102656 0.0031615 0)
(0.100975 0.00240678 0)
(0.102487 0.00339827 0)
(0.100779 0.0028661 0)
(0.101592 0.00447248 0)
(0.100349 0.00293366 0)
(0.100935 0.00583003 0)
(0.0987048 0.00411313 0)
(0.100522 0.00639294 0)
(0.0964553 0.00626307 0)
(0.0989579 0.0082827 0)
(0.0944208 0.00748708 0)
(0.0963676 0.0121819 0)
(0.0910808 0.0097953 0)
(0.0933522 0.0152171 0)
(0.0854574 0.0139505 0)
(0.10009 0.000428236 0)
(0.099884 0.000429359 0)
(0.100569 0.00118554 0)
(0.100157 0.00095287 0)
(0.101034 0.00160316 0)
(0.100596 0.00123966 0)
(0.101356 0.00178046 0)
(0.101031 0.00160093 0)
(0.101601 0.00189613 0)
(0.101256 0.00192827 0)
(0.101956 0.00222724 0)
(0.10135 0.00201175 0)
(0.102222 0.0028096 0)
(0.101431 0.00212431 0)
(0.102346 0.00322928 0)
(0.101446 0.00275352 0)
(0.102336 0.00353378 0)
(0.101289 0.00339311 0)
(0.10221 0.00453426 0)
(0.101037 0.00377503 0)
(0.101719 0.00584702 0)
(0.100733 0.00515159 0)
(0.101289 0.00665047 0)
(0.0995139 0.00738549 0)
(0.101196 0.00857784 0)
(0.0981448 0.00937062 0)
(0.100041 0.0115727 0)
(0.0977031 0.0128431 0)
(0.09819 0.0152386 0)
(0.0959073 0.0167326 0)
(0.100026 0.000303641 0)
(0.100014 0.000210748 0)
(0.100326 0.000928728 0)
(0.100249 0.000556091 0)
(0.100651 0.00138402 0)
(0.100602 0.000829364 0)
(0.10098 0.00157745 0)
(0.100991 0.00119971 0)
(0.101247 0.0017514 0)
(0.101262 0.00142686 0)
(0.101508 0.00228129 0)
(0.101528 0.0013834 0)
(0.101666 0.00299861 0)
(0.101761 0.00157187 0)
(0.101782 0.00333895 0)
(0.101911 0.00236642 0)
(0.101796 0.0036803 0)
(0.101937 0.00304262 0)
(0.101798 0.00476452 0)
(0.101792 0.00354401 0)
(0.101601 0.00606185 0)
(0.101725 0.00499975 0)
(0.101334 0.00714453 0)
(0.101253 0.00703985 0)
(0.101195 0.00935253 0)
(0.10081 0.00888121 0)
(0.10081 0.0126197 0)
(0.1007 0.0121178 0)
(0.100442 0.0162797 0)
(0.100636 0.0164389 0)
(0.100066 0.000236959 0)
(0.09996 0.000254805 0)
(0.100309 0.000726457 0)
(0.100193 0.000610792 0)
(0.100495 0.00116404 0)
(0.100572 0.000864212 0)
(0.10072 0.00145867 0)
(0.100983 0.00115636 0)
(0.101015 0.00169933 0)
(0.101207 0.00141266 0)
(0.101349 0.00214583 0)
(0.10149 0.00151868 0)
(0.101481 0.00279348 0)
(0.101858 0.0017555 0)
(0.101594 0.00321429 0)
(0.102061 0.00252201 0)
(0.101764 0.00358813 0)
(0.102104 0.00332225 0)
(0.101939 0.00457424 0)
(0.102133 0.00400577 0)
(0.101841 0.00581053 0)
(0.102267 0.00549508 0)
(0.101882 0.00700268 0)
(0.101995 0.00748347 0)
(0.102122 0.00911771 0)
(0.101979 0.00962769 0)
(0.102036 0.011897 0)
(0.102485 0.0128672 0)
(0.102311 0.0156043 0)
(0.102823 0.0168119 0)
(0.100035 0.000183535 0)
(0.100003 0.000165749 0)
(0.100238 0.00062768 0)
(0.100195 0.000412061 0)
(0.100407 0.0010292 0)
(0.100508 0.000639275 0)
(0.100621 0.00130913 0)
(0.100924 0.000914737 0)
(0.100894 0.00157249 0)
(0.101208 0.00113861 0)
(0.101229 0.00202791 0)
(0.101519 0.00128996 0)
(0.101438 0.00261016 0)
(0.101889 0.00163625 0)
(0.101638 0.00301709 0)
(0.10218 0.00237282 0)
(0.101854 0.00351769 0)
(0.102357 0.00313485 0)
(0.102162 0.00451201 0)
(0.102492 0.00392037 0)
(0.102244 0.00570705 0)
(0.102833 0.00536758 0)
(0.102439 0.00705361 0)
(0.102935 0.00717294 0)
(0.102844 0.00923651 0)
(0.103252 0.00918899 0)
(0.10324 0.0119173 0)
(0.10399 0.0122429 0)
(0.103955 0.0153283 0)
(0.105033 0.0159528 0)
(0.100068 9.62471e-05 0)
(0.0999653 0.00020576 0)
(0.100223 0.000445354 0)
(0.100176 0.000407359 0)
(0.100351 0.000806737 0)
(0.100493 0.000585452 0)
(0.100557 0.00111646 0)
(0.100887 0.000815103 0)
(0.100889 0.00139643 0)
(0.101152 0.00106274 0)
(0.101277 0.00178692 0)
(0.101504 0.00130135 0)
(0.101514 0.00230865 0)
(0.101933 0.00168408 0)
(0.101791 0.00274584 0)
(0.102271 0.00238376 0)
(0.102118 0.00329339 0)
(0.10255 0.00314857 0)
(0.102527 0.00426027 0)
(0.102839 0.00399287 0)
(0.102786 0.0054059 0)
(0.103298 0.00541076 0)
(0.103229 0.00676293 0)
(0.103644 0.00714751 0)
(0.103814 0.00878931 0)
(0.104327 0.00920539 0)
(0.104502 0.0112345 0)
(0.105318 0.0120048 0)
(0.105692 0.0144046 0)
(0.106638 0.0154631 0)
(0.100056 7.16276e-05 0)
(0.0999695 0.000141121 0)
(0.1002 0.000367734 0)
(0.100169 0.000292866 0)
(0.100341 0.000662601 0)
(0.100471 0.000461269 0)
(0.100552 0.000925797 0)
(0.100876 0.000682519 0)
(0.100894 0.00119225 0)
(0.10117 0.000919775 0)
(0.101325 0.00155587 0)
(0.101537 0.0011876 0)
(0.101643 0.00202952 0)
(0.101991 0.00159137 0)
(0.101996 0.00248243 0)
(0.102419 0.00223565 0)
(0.102384 0.00307438 0)
(0.102817 0.00298084 0)
(0.102908 0.00400164 0)
(0.103233 0.00385638 0)
(0.10332 0.005106 0)
(0.103848 0.00517875 0)
(0.103944 0.00649192 0)
(0.104435 0.00678805 0)
(0.104727 0.00842622 0)
(0.105357 0.00874549 0)
(0.105722 0.0106682 0)
(0.106598 0.0113325 0)
(0.107169 0.0135315 0)
(0.108265 0.0144216 0)
(0.100058 1.72534e-05 0)
(0.0999722 0.000134471 0)
(0.100176 0.000242545 0)
(0.100179 0.000234158 0)
(0.10033 0.000480235 0)
(0.100473 0.000361956 0)
(0.100578 0.000713611 0)
(0.100864 0.000562153 0)
(0.100967 0.000949415 0)
(0.10118 0.000813029 0)
(0.101424 0.00125867 0)
(0.101607 0.00111022 0)
(0.10178 0.00169649 0)
(0.10211 0.00150456 0)
(0.102221 0.00216791 0)
(0.10259 0.00209665 0)
(0.102699 0.00277196 0)
(0.103096 0.00282376 0)
(0.10332 0.00364873 0)
(0.103637 0.00371017 0)
(0.10388 0.00468874 0)
(0.104388 0.00495348 0)
(0.104675 0.00603822 0)
(0.105185 0.00646977 0)
(0.105619 0.00781106 0)
(0.106329 0.00832585 0)
(0.106866 0.0098741 0)
(0.107759 0.01065 0)
(0.108563 0.0124264 0)
(0.109659 0.0134467 0)
(0.100049 -8.67427e-08 0)
(0.0999796 7.84619e-05 0)
(0.100158 0.000151891 0)
(0.100191 0.000136253 0)
(0.100339 0.000313229 0)
(0.100494 0.000242378 0)
(0.100617 0.000493593 0)
(0.100896 0.000420658 0)
(0.101039 0.000705775 0)
(0.101244 0.000649933 0)
(0.101536 0.000987285 0)
(0.10171 0.000941581 0)
(0.101946 0.00138899 0)
(0.102262 0.00132452 0)
(0.102455 0.00184907 0)
(0.102816 0.0018738 0)
(0.103008 0.00244092 0)
(0.103416 0.00256859 0)
(0.103736 0.00326681 0)
(0.104065 0.00342854 0)
(0.104422 0.0042509 0)
(0.104957 0.0045695 0)
(0.105359 0.00553862 0)
(0.105926 0.00597582 0)
(0.106472 0.00716137 0)
(0.107233 0.00770476 0)
(0.107928 0.00902244 0)
(0.108852 0.00979058 0)
(0.109783 0.0112941 0)
(0.110941 0.012239 0)
(0.10004 -2.97595e-05 0)
(0.0999949 3.57195e-05 0)
(0.100145 4.64001e-05 0)
(0.100213 4.44874e-05 0)
(0.10036 0.00014171 0)
(0.100524 0.000117727 0)
(0.100685 0.000276478 0)
(0.100941 0.000276612 0)
(0.10114 0.000456077 0)
(0.101332 0.000495562 0)
(0.10166 0.0007067 0)
(0.101854 0.000769622 0)
(0.102116 0.00108399 0)
(0.10245 0.00112508 0)
(0.102709 0.00152719 0)
(0.103055 0.00163664 0)
(0.103339 0.00208283 0)
(0.103753 0.00230012 0)
(0.104153 0.00284916 0)
(0.104507 0.00311823 0)
(0.104953 0.00376883 0)
(0.105519 0.00415679 0)
(0.106023 0.00496621 0)
(0.106635 0.00545847 0)
(0.107278 0.00642736 0)
(0.108085 0.00703529 0)
(0.108901 0.0081145 0)
(0.109847 0.00888226 0)
(0.110885 0.0101004 0)
(0.112075 0.011022 0)
(0.100031 -4.79715e-05 0)
(0.10001 -2.81464e-05 0)
(0.100144 -6.454e-05 0)
(0.100244 -7.98251e-05 0)
(0.100401 -5.03018e-05 0)
(0.100584 -5.41448e-05 0)
(0.100771 2.88361e-05 0)
(0.101029 6.17853e-05 0)
(0.10126 0.000174061 0)
(0.10146 0.000244264 0)
(0.101812 0.000391291 0)
(0.102026 0.000487347 0)
(0.102311 0.000728834 0)
(0.102672 0.000820008 0)
(0.102972 0.0011373 0)
(0.103331 0.00128997 0)
(0.103678 0.00165328 0)
(0.104108 0.00190702 0)
(0.104574 0.00236234 0)
(0.104959 0.00266746 0)
(0.105469 0.00321196 0)
(0.106083 0.00360704 0)
(0.106657 0.00430572 0)
(0.10731 0.00479461 0)
(0.108041 0.00561039 0)
(0.10888 0.00621879 0)
(0.109789 0.00711397 0)
(0.110769 0.00783503 0)
(0.111869 0.00884634 0)
(0.113092 0.00967871 0)
(0.100022 -7.09598e-05 0)
(0.100026 -9.5503e-05 0)
(0.100148 -0.000177488 0)
(0.100278 -0.000203704 0)
(0.100453 -0.000223381 0)
(0.100652 -0.000208761 0)
(0.100874 -0.000178109 0)
(0.101134 -0.000113067 0)
(0.101395 -5.2599e-05 0)
(0.101617 4.71847e-05 0)
(0.101978 0.000143463 0)
(0.102229 0.000261107 0)
(0.102532 0.000448145 0)
(0.102918 0.00056953 0)
(0.103264 0.000816092 0)
(0.103629 0.000998767 0)
(0.104036 0.00127947 0)
(0.10449 0.00155834 0)
(0.104999 0.00192517 0)
(0.105425 0.00224548 0)
(0.105988 0.00269617 0)
(0.106641 0.00308692 0)
(0.107279 0.00366554 0)
(0.107962 0.00415102 0)
(0.108766 0.00481816 0)
(0.109634 0.00541175 0)
(0.110609 0.00615238 0)
(0.111618 0.00681644 0)
(0.112765 0.00763757 0)
(0.114011 0.00838454 0)
(0.100015 -0.000101183 0)
(0.100049 -0.000198215 0)
(0.10018 -0.00034141 0)
(0.100346 -0.000404527 0)
(0.100553 -0.000473092 0)
(0.100777 -0.000466535 0)
(0.101031 -0.000475039 0)
(0.101301 -0.000414494 0)
(0.101582 -0.000385752 0)
(0.101825 -0.000297976 0)
(0.102193 -0.000234411 0)
(0.102472 -0.000128288 0)
(0.102791 1.62956e-05 0)
(0.1032 0.000144328 0)
(0.10358 0.000335044 0)
(0.103957 0.000519738 0)
(0.104413 0.000747526 0)
(0.104887 0.00101833 0)
(0.105431 0.00132672 0)
(0.105898 0.00163016 0)
(0.106506 0.00201711 0)
(0.10719 0.0023804 0)
(0.107882 0.0028669 0)
(0.108586 0.00332069 0)
(0.109456 0.00387871 0)
(0.11035 0.0044259 0)
(0.111375 0.00504386 0)
(0.112406 0.00562916 0)
(0.113586 0.0063072 0)
(0.114838 0.00696076 0)
(0.10001 -0.000127148 0)
(0.100069 -0.000278883 0)
(0.100222 -0.000456473 0)
(0.100429 -0.000531972 0)
(0.100683 -0.000616844 0)
(0.100932 -0.000610508 0)
(0.101224 -0.000640053 0)
(0.101503 -0.000584723 0)
(0.101804 -0.000581574 0)
(0.102071 -0.000507286 0)
(0.102451 -0.000465751 0)
(0.102755 -0.000372832 0)
(0.103105 -0.000256725 0)
(0.103525 -0.000124294 0)
(0.103952 2.16886e-05 0)
(0.10434 0.000201997 0)
(0.104844 0.00038357 0)
(0.105334 0.000634569 0)
(0.105907 0.000892544 0)
(0.106408 0.0011668 0)
(0.107073 0.00149184 0)
(0.107766 0.00181996 0)
(0.108515 0.00220754 0)
(0.109226 0.00262423 0)
(0.110152 0.00308538 0)
(0.111053 0.00357775 0)
(0.112124 0.00408384 0)
(0.113165 0.00458805 0)
(0.114397 0.00512601 0)
(0.115631 0.00568022 0)
(0.100007 -0.00021581 0)
(0.100116 -0.000527611 0)
(0.100326 -0.000795307 0)
(0.100584 -0.000910559 0)
(0.100894 -0.00101272 0)
(0.101159 -0.00101863 0)
(0.101488 -0.0010611 0)
(0.101763 -0.00102355 0)
(0.102091 -0.00103715 0)
(0.102372 -0.000984079 0)
(0.10278 -0.000952993 0)
(0.103086 -0.000873504 0)
(0.103484 -0.000777113 0)
(0.103894 -0.00065545 0)
(0.104371 -0.00055164 0)
(0.104747 -0.000395045 0)
(0.105305 -0.000244679 0)
(0.105783 -3.3835e-05 0)
(0.106401 0.000173336 0)
(0.106905 0.000403141 0)
(0.107642 0.000677587 0)
(0.108305 0.000965234 0)
(0.109127 0.00128064 0)
(0.109823 0.00164979 0)
(0.110824 0.00203037 0)
(0.111699 0.00244662 0)
(0.112838 0.00285728 0)
(0.113846 0.00328591 0)
(0.115152 0.00372792 0)
(0.116343 0.00419618 0)
(0.0999981 -0.000240401 0)
(0.100224 -0.000594745 0)
(0.100563 -0.000845536 0)
(0.100935 -0.000957322 0)
(0.101306 -0.00105011 0)
(0.1016 -0.0010755 0)
(0.101938 -0.00113042 0)
(0.102209 -0.00112151 0)
(0.102542 -0.00116023 0)
(0.102824 -0.00113104 0)
(0.103232 -0.00111097 0)
(0.103517 -0.00106229 0)
(0.103925 -0.000994464 0)
(0.104287 -0.000898885 0)
(0.104769 -0.000834083 0)
(0.105112 -0.000707108 0)
(0.105666 -0.000587071 0)
(0.106095 -0.000415136 0)
(0.106708 -0.000245435 0)
(0.1072 -5.23373e-05 0)
(0.107948 0.00017349 0)
(0.108567 0.000412456 0)
(0.109392 0.000656964 0)
(0.11007 0.000981813 0)
(0.111076 0.00129636 0)
(0.111931 0.00163544 0)
(0.113106 0.00194551 0)
(0.114109 0.00228181 0)
(0.115471 0.00261658 0)
(0.116633 0.00299769 0)
(0.0999736 -0.000693555 0)
(0.100351 -0.00136107 0)
(0.100698 -0.00157048 0)
(0.1011 -0.00161385 0)
(0.10133 -0.00167193 0)
(0.101552 -0.0017168 0)
(0.101658 -0.0017623 0)
(0.101817 -0.00175829 0)
(0.101886 -0.00177905 0)
(0.102028 -0.00174661 0)
(0.102097 -0.00170969 0)
(0.102204 -0.00165754 0)
(0.102273 -0.00159583 0)
(0.102442 -0.00152607 0)
(0.102522 -0.00147939 0)
(0.10266 -0.00136461 0)
(0.102814 -0.00125249 0)
(0.103073 -0.00112069 0)
(0.103292 -0.00100739 0)
(0.103622 -0.000860615 0)
(0.103945 -0.000692959 0)
(0.104408 -0.000492027 0)
(0.104882 -0.00030946 0)
(0.105533 -7.09486e-05 0)
(0.106213 0.00013646 0)
(0.107043 0.000370748 0)
(0.107909 0.00058683 0)
(0.108937 0.00085464 0)
(0.110078 0.00110309 0)
(0.111398 0.00138328 0)
(0.0990153 -0.000603839 0)
(0.0984622 -0.00114388 0)
(0.0974113 -0.0012755 0)
(0.0960195 -0.0012818 0)
(0.0943742 -0.00130277 0)
(0.092778 -0.00132129 0)
(0.0911371 -0.00132109 0)
(0.0896225 -0.00132233 0)
(0.0880055 -0.00130875 0)
(0.0865301 -0.00124892 0)
(0.084992 -0.00120417 0)
(0.0835827 -0.00117376 0)
(0.0821092 -0.00112831 0)
(0.0808348 -0.00106415 0)
(0.0794729 -0.00100415 0)
(0.0783283 -0.000945445 0)
(0.0771248 -0.00090126 0)
(0.0761662 -0.00084047 0)
(0.075115 -0.000745944 0)
(0.0743991 -0.000632632 0)
(0.0735936 -0.000559858 0)
(0.0731441 -0.000511591 0)
(0.0725473 -0.000438525 0)
(0.0724071 -0.000308601 0)
(0.0721373 -0.000158509 0)
(0.0724054 -1.88592e-05 0)
(0.0724586 8.63644e-05 0)
(0.073092 0.000154264 0)
(0.0734408 0.000219805 0)
(0.0744435 0.000285823 0)
(0.010642 0.00113906 0)
(0.040127 0.0139365 0)
(0.0301555 0.0106991 0)
(0.0626925 0.0252279 8.39587e-22)
(0.0450613 0.0200934 6.79661e-22)
(0.0803448 0.0336118 0)
(0.0599205 0.028161 2.92973e-22)
(0.0974728 0.0397801 1.92656e-23)
(0.077168 0.0358964 6.42506e-22)
(0.123218 0.0435935 0)
(0.065443 0.0121342 0)
(0.0727664 0.0201082 0)
(0.0799983 0.0228258 0)
(0.0874116 0.0326386 0)
(0.0909503 0.0318963 0)
(0.0999668 0.0405197 1.72407e-22)
(0.106021 0.0403179 5.89354e-23)
(0.116473 0.0494243 -8.47124e-23)
(0.120117 0.0437613 -5.02561e-22)
(0.136819 0.0542188 -4.6265e-22)
(0.0882903 0.0215325 0)
(0.0898843 0.021793 0)
(0.0950923 0.0284008 0)
(0.0983623 0.0311601 0)
(0.104895 0.037957 0)
(0.107414 0.0338219 -1.72407e-22)
(0.115203 0.0401358 -5.89347e-23)
(0.122429 0.0430125 8.47112e-23)
(0.128839 0.0431424 2.65973e-22)
(0.13503 0.0379103 4.62659e-22)
(0.0960123 0.0206587 -3.68665e-22)
(0.098361 0.0248179 0)
(0.101082 0.0259902 -2.97941e-22)
(0.104226 0.0293794 -2.46605e-22)
(0.109536 0.0343342 -1.75885e-22)
(0.11365 0.0352559 0)
(0.117514 0.0351498 0)
(0.124468 0.0392707 1.26434e-22)
(0.132698 0.042236 2.71692e-22)
(0.136999 0.0384291 4.13141e-22)
(0.099558 0.0214248 3.68666e-22)
(0.102655 0.0222509 0)
(0.104877 0.0269663 2.97942e-22)
(0.107832 0.0275818 2.46607e-22)
(0.111521 0.0324904 1.75885e-22)
(0.116724 0.0318387 0)
(0.119952 0.0332949 0)
(0.125491 0.0332871 -1.26434e-22)
(0.132559 0.0366784 -2.71692e-22)
(0.13833 0.0323937 -4.13142e-22)
(0.102891 0.0200351 0)
(0.104977 0.0221444 -2.66701e-22)
(0.107297 0.0247487 0)
(0.110505 0.025334 -1.73925e-22)
(0.114065 0.0289082 0)
(0.118559 0.0297582 0)
(0.122401 0.0305933 0)
(0.126946 0.0302005 -1.48438e-22)
(0.133053 0.0333649 0)
(0.138158 0.0301263 0)
(0.104999 0.0195347 2.62601e-22)
(0.107293 0.0201382 5.02261e-22)
(0.109794 0.0234628 1.94928e-22)
(0.112834 0.0236765 1.73925e-22)
(0.115651 0.0267169 0)
(0.119905 0.0265835 -1.98315e-23)
(0.123828 0.0281293 0)
(0.128022 0.0266331 1.48439e-22)
(0.133153 0.0290857 0)
(0.138349 0.0263913 0)
(0.10723 0.0180327 -2.62601e-22)
(0.109246 0.0190189 -2.3556e-22)
(0.111616 0.0214619 -1.94928e-22)
(0.11457 0.021675 0)
(0.117548 0.02398 0)
(0.121268 0.0241268 1.98315e-23)
(0.125098 0.0253025 0)
(0.129038 0.0240212 0)
(0.133156 0.0257911 0)
(0.138006 0.0236235 0)
(0.109035 0.0168432 0)
(0.110984 0.0173988 -1.84681e-22)
(0.11335 0.0196258 0)
(0.116187 0.0198103 -1.0198e-22)
(0.118924 0.0217485 0)
(0.122347 0.0214403 0)
(0.125886 0.0227397 7.93287e-23)
(0.129626 0.0215405 1.59892e-22)
(0.133407 0.0224793 0)
(0.137794 0.0203735 3.32932e-22)
(0.110667 0.0153357 0)
(0.112526 0.0159318 1.84681e-22)
(0.114792 0.0177296 0)
(0.117447 0.017843 1.0198e-22)
(0.120179 0.0194028 0)
(0.123312 0.0192239 0)
(0.126539 0.0201387 -7.93289e-23)
(0.130124 0.0190185 -1.59892e-22)
(0.133566 0.0196769 0)
(0.137263 0.017999 -3.32933e-22)
(0.112084 0.013864 8.58778e-23)
(0.113866 0.0143299 0)
(0.116066 0.0158628 0)
(0.118613 0.0159596 3.56513e-23)
(0.121156 0.0172146 0)
(0.124082 0.0169092 0)
(0.127148 0.0177553 0)
(0.13041 0.0168254 -7.92915e-23)
(0.133513 0.017043 0)
(0.13685 0.01539 0)
(0.113316 0.0123484 -7.78791e-24)
(0.115044 0.0127804 0)
(0.117144 0.0140262 4.95371e-23)
(0.119544 0.014115 -5.80002e-24)
(0.122008 0.0151385 0)
(0.12473 0.0148895 0)
(0.127554 0.0154465 -4.62015e-23)
(0.130594 0.0146332 7.92916e-23)
(0.133527 0.0147456 -1.12035e-22)
(0.136482 0.0133185 -1.47076e-22)
(0.114406 0.0107844 -6.64747e-24)
(0.116091 0.0111648 0)
(0.118104 0.0122049 -5.66827e-24)
(0.120387 0.0122856 -4.74919e-24)
(0.122727 0.0130709 4.05017e-24)
(0.125292 0.0128452 1.99411e-23)
(0.127956 0.0133007 -8.15051e-25)
(0.130724 0.0125795 -7.69392e-23)
(0.133411 0.0125007 3.53367e-24)
(0.136115 0.0112208 5.67367e-24)
(0.115367 0.00928873 -7.14427e-23)
(0.116998 0.00963325 0)
(0.118923 0.0104847 -4.3869e-23)
(0.12109 0.0105831 -2.51022e-23)
(0.123332 0.0112176 -4.05018e-24)
(0.125731 0.0110313 -4.17393e-23)
(0.12823 0.0113219 4.70167e-23)
(0.130827 0.0107015 7.69393e-23)
(0.133332 0.0105844 1.08502e-22)
(0.13581 0.00945798 1.41403e-22)
(0.116241 0.00770073 0)
(0.117843 0.00801034 0)
(0.1197 0.00870561 0)
(0.121757 0.00880422 0)
(0.123907 0.00928828 0)
(0.12618 0.00913462 2.17982e-23)
(0.128529 0.00934221 0)
(0.130924 0.00880312 0)
(0.133255 0.00861937 0)
(0.13556 0.00765917 0)
(0.117062 0.00627623 0)
(0.118582 0.00656205 0)
(0.120381 0.0071383 0)
(0.122315 0.00726212 0)
(0.124398 0.00765387 0)
(0.12653 0.00754152 1.1962e-23)
(0.128775 0.0076669 0)
(0.131015 0.00720956 0)
(0.133225 0.00700501 0)
(0.13536 0.0061826 0)
(0.117865 0.00466544 0)
(0.119281 0.00491476 0)
(0.121087 0.00536737 1.46067e-23)
(0.122833 0.00548576 0)
(0.124888 0.00578071 -2.20036e-24)
(0.126805 0.00569839 -1.1962e-23)
(0.128981 0.00577596 0)
(0.130962 0.00540922 -3.52497e-23)
(0.133089 0.00520743 0)
(0.134968 0.00454542 0)
(0.118184 0.00336846 0)
(0.119238 0.00360382 0)
(0.121059 0.00397257 -1.46068e-23)
(0.122402 0.00411362 0)
(0.124492 0.00434172 2.20037e-24)
(0.125987 0.00429391 0)
(0.128199 0.0043154 0)
(0.129718 0.00401216 3.52499e-23)
(0.131881 0.00379024 0)
(0.133245 0.0032456 0)
(0.112838 0.0016147 -6.23811e-24)
(0.113311 0.00177816 -4.83694e-24)
(0.115053 0.00200542 -3.22341e-24)
(0.115715 0.00212766 0)
(0.117744 0.00226975 7.10993e-25)
(0.118499 0.00226601 0)
(0.120694 0.00227575 5.61503e-24)
(0.121402 0.00210177 0)
(0.123601 0.00194497 1.14757e-23)
(0.124036 0.00160511 1.47237e-23)
(0.0751284 0.000352913 6.23739e-24)
(0.0753039 0.000422047 4.83634e-24)
(0.0764081 0.000522486 3.22299e-24)
(0.076866 0.000596176 0)
(0.078364 0.00062501 -7.1089e-25)
(0.0789525 0.000601294 0)
(0.0806409 0.000527662 -5.61412e-24)
(0.0810588 0.000401513 0)
(0.0826269 0.000241113 -1.14736e-23)
(0.0824742 5.20119e-05 -1.47209e-23)
(0.0101928 -0.00515881 0)
(0.0213569 0.00335168 0)
(0.01397 0.00917718 0)
(0.0156307 0.000111794 0)
(0.00491587 0.00999988 0)
(-0.0404481 0.0179991 0)
(-0.0815894 0.0155344 0)
(-0.112274 0.0109018 0)
(-0.128885 0.00643002 0)
(-0.135931 0.00272138 0)
(-0.134022 -0.000115164 0)
(-0.127643 -0.00226237 0)
(-0.115868 -0.00354952 0)
(-0.103157 -0.00439379 0)
(-0.08759 -0.00474485 0)
(-0.0693555 -0.00559579 0)
(-0.0530773 -0.00577415 0)
(-0.0312258 -0.00632509 0)
(-0.0127766 -0.00563994 0)
(0.00630403 -0.00511056 0)
(0.0222422 -0.00400591 0)
(0.0355697 -0.00286598 0)
(0.0456066 -0.00179018 0)
(0.0528591 -0.000915729 0)
(0.0578327 -0.000253738 0)
(0.0611208 0.000232711 0)
(0.0630402 0.000617717 0)
(0.06392 0.000968269 0)
(0.0638056 0.0013287 0)
(0.0627766 0.00164447 0)
(0.0608163 0.00182069 0)
(0.0581994 0.00180411 0)
(0.0551869 0.00161041 0)
(0.052173 0.0013134 0)
(0.0494163 0.00098374 0)
(0.0470476 0.000682676 0)
(0.0452432 0.000443938 0)
(0.0437054 0.000263762 0)
(0.0428485 0.000156347 0)
(0.041729 7.75033e-05 0)
(0.009443 -0.0186053 0)
(0.0145288 -0.00497619 0)
(0.0242862 -0.00573472 0)
(-0.00332269 0.00735928 0)
(-0.0400088 0.0309961 0)
(-0.0784862 0.0398808 0)
(-0.101647 0.0331146 0)
(-0.123405 0.0228751 0)
(-0.129288 0.0112851 0)
(-0.133938 0.00189973 0)
(-0.12591 -0.00629421 0)
(-0.119256 -0.0110873 0)
(-0.103346 -0.0147747 0)
(-0.0917938 -0.0166894 0)
(-0.0744077 -0.019276 0)
(-0.0571978 -0.0199708 0)
(-0.0389734 -0.0216065 0)
(-0.018571 -0.0228476 0)
(0.000452706 -0.0214095 0)
(0.019633 -0.0199038 0)
(0.036157 -0.0168912 0)
(0.0504184 -0.0135691 0)
(0.061758 -0.0103085 0)
(0.0705555 -0.00754301 0)
(0.07716 -0.00537433 0)
(0.0822634 -0.00378229 0)
(0.0861484 -0.00253852 0)
(0.0892101 -0.00151057 0)
(0.0916333 -0.000504628 0)
(0.0935602 0.000468262 0)
(0.0950118 0.00140835 0)
(0.0958252 0.00214918 0)
(0.0960561 0.00265587 0)
(0.0955129 0.00275982 0)
(0.0946482 0.00263871 0)
(0.0933284 0.00224901 0)
(0.0922718 0.00188986 0)
(0.0910143 0.00142184 0)
(0.0904015 0.00117182 0)
(0.0893669 0.000821014 0)
(0.00720594 -0.0235631 0)
(-0.00782075 -0.00720197 0)
(-0.0122318 0.0219629 0)
(-0.0306062 0.0432317 0)
(-0.0534135 0.0606385 0)
(-0.0723006 0.0599421 0)
(-0.0850454 0.047283 0)
(-0.0979146 0.0320352 0)
(-0.100294 0.0155039 0)
(-0.101823 0.00133015 0)
(-0.0930934 -0.0110091 0)
(-0.0851775 -0.018673 0)
(-0.0712686 -0.0239276 0)
(-0.0589527 -0.0262371 0)
(-0.0443138 -0.028874 0)
(-0.0292985 -0.0317829 0)
(-0.0127874 -0.0338747 0)
(0.00375855 -0.0351672 0)
(0.0199485 -0.0340462 0)
(0.0356504 -0.0313224 0)
(0.0492964 -0.0267614 0)
(0.0608691 -0.0216084 0)
(0.070236 -0.0164809 0)
(0.0776401 -0.0120793 0)
(0.0831217 -0.00868467 0)
(0.0873998 -0.00629411 0)
(0.0908613 -0.0044816 0)
(0.0938173 -0.0030908 0)
(0.0962516 -0.00188725 0)
(0.098357 -0.000865421 0)
(0.100363 0.000167828 0)
(0.102385 0.00110731 0)
(0.104248 0.00197089 0)
(0.105704 0.00250564 0)
(0.106517 0.00272694 0)
(0.106766 0.0025506 0)
(0.106494 0.00221561 0)
(0.106012 0.00170301 0)
(0.105524 0.00136569 0)
(0.104904 0.000903967 0)
(0.00923287 -0.0151267 0)
(-0.0112789 0.0107813 0)
(-0.0110274 0.0128781 0)
(-0.0290817 0.0431493 0)
(-0.0456678 0.0606702 0)
(-0.0545278 0.0612138 0)
(-0.0584322 0.0502864 0)
(-0.0654974 0.0348799 0)
(-0.0659922 0.0157018 0)
(-0.0660325 -0.00229349 0)
(-0.0590199 -0.0180381 0)
(-0.0505536 -0.0272675 0)
(-0.0382322 -0.0335244 0)
(-0.027153 -0.0365622 0)
(-0.013569 -0.0398003 0)
(0.000868739 -0.0426017 0)
(0.0151924 -0.0450001 0)
(0.0298036 -0.0459865 0)
(0.0424977 -0.044774 0)
(0.0541863 -0.0410356 0)
(0.0645952 -0.0350182 0)
(0.0728458 -0.0284423 0)
(0.0791437 -0.0221187 0)
(0.0844328 -0.0164965 0)
(0.0884308 -0.0120661 0)
(0.0913634 -0.00910406 0)
(0.0937507 -0.00697763 0)
(0.0962052 -0.00524326 0)
(0.0984537 -0.00365204 0)
(0.100243 -0.00242891 0)
(0.10149 -0.00144212 0)
(0.102701 -0.000640903 0)
(0.104068 0.000213336 0)
(0.105758 0.0010293 0)
(0.107299 0.00174171 0)
(0.108624 0.00213174 0)
(0.109398 0.00229545 0)
(0.109659 0.00201123 0)
(0.109721 0.00185503 0)
(0.109229 0.00123582 0)
(0.00826617 -0.0264498 0)
(-0.0132648 0.00587581 0)
(-0.0238533 0.0307087 0)
(-0.0194875 0.0602887 0)
(-0.021838 0.0760882 0)
(-0.0185623 0.0727985 0)
(-0.0206156 0.0581221 0)
(-0.0244378 0.0399055 0)
(-0.0244805 0.0175757 0)
(-0.0228639 -0.00335778 0)
(-0.0174995 -0.0222988 0)
(-0.0106759 -0.0344442 0)
(-0.00160781 -0.0412799 0)
(0.00759309 -0.0451347 0)
(0.0189129 -0.0488275 0)
(0.0309661 -0.0524405 0)
(0.0436838 -0.0547643 0)
(0.0558696 -0.0546701 0)
(0.0657024 -0.0519315 0)
(0.0722381 -0.0473319 0)
(0.0779313 -0.0402981 0)
(0.083101 -0.0320707 0)
(0.086341 -0.02477 0)
(0.0888923 -0.0186932 0)
(0.0914155 -0.0135976 0)
(0.093455 -0.0101083 0)
(0.0947258 -0.00806041 0)
(0.09613 -0.00661944 0)
(0.0980561 -0.00491574 0)
(0.100158 -0.00313819 0)
(0.101599 -0.00165718 0)
(0.102293 -0.000761777 0)
(0.102558 -0.000200274 0)
(0.103069 0.000234577 0)
(0.103942 0.000738011 0)
(0.10521 0.00112759 0)
(0.106521 0.00155636 0)
(0.107717 0.00153522 0)
(0.108554 0.00172186 0)
(0.109283 0.0012986 0)
(-0.0120048 -0.00724002 0)
(-0.021474 0.0393625 0)
(-0.00719335 0.0208378 0)
(-0.00116971 0.0486041 0)
(-0.000256137 0.0612609 0)
(0.00806284 0.0595243 0)
(0.0114686 0.0512446 0)
(0.0154973 0.0366539 0)
(0.019174 0.0153955 0)
(0.0237516 -0.00679682 0)
(0.0292094 -0.0263749 0)
(0.0336236 -0.038742 0)
(0.0382752 -0.0461708 0)
(0.0443977 -0.0511121 0)
(0.0520832 -0.0559042 0)
(0.0620372 -0.0599437 0)
(0.0717268 -0.062502 0)
(0.0794068 -0.0621325 0)
(0.0862559 -0.0569741 0)
(0.0897559 -0.0497715 0)
(0.0896483 -0.0426018 0)
(0.0904458 -0.0341829 0)
(0.0916044 -0.0259798 0)
(0.0920227 -0.0198836 0)
(0.0927763 -0.0151277 0)
(0.0943664 -0.0113004 0)
(0.0956343 -0.0087668 0)
(0.0963517 -0.00753523 0)
(0.0971727 -0.0064474 0)
(0.0987348 -0.00487366 0)
(0.100518 -0.00289403 0)
(0.10172 -0.0012709 0)
(0.101945 -0.000307778 0)
(0.101649 7.73626e-05 0)
(0.101326 0.000236974 0)
(0.101653 0.000294715 0)
(0.102244 0.000478114 0)
(0.103842 0.000511984 0)
(0.104637 0.000682328 0)
(0.106879 0.000652409 0)
(-0.063836 -0.00720172 0)
(-0.00258722 0.000540128 0)
(-0.0206884 0.00943194 0)
(0.0236048 0.0502567 0)
(0.0356259 0.0690964 0)
(0.0509364 0.0656702 0)
(0.0548865 0.0541487 0)
(0.0611368 0.0360532 0)
(0.066236 0.013257 0)
(0.0710103 -0.00962218 0)
(0.073809 -0.0280755 0)
(0.0737522 -0.039982 0)
(0.0738124 -0.0481969 0)
(0.0764531 -0.0549415 0)
(0.0823419 -0.0609713 0)
(0.0886837 -0.0657623 0)
(0.0950033 -0.0668707 0)
(0.0976833 -0.0651966 0)
(0.097704 -0.0598009 0)
(0.0987862 -0.0502123 0)
(0.0971481 -0.0411258 0)
(0.0942859 -0.0334806 0)
(0.0935276 -0.02571 0)
(0.0938322 -0.0193262 0)
(0.0940944 -0.0151057 0)
(0.0950888 -0.0120462 0)
(0.0965398 -0.00941704 0)
(0.0976185 -0.00768152 0)
(0.0979837 -0.00661629 0)
(0.0984132 -0.00555704 0)
(0.0994282 -0.00383876 0)
(0.1008 -0.00183485 0)
(0.101769 -0.000177852 0)
(0.102115 0.000671165 0)
(0.101631 0.000731427 0)
(0.101562 0.000452988 0)
(0.100908 -8.77494e-06 0)
(0.102136 -0.00018414 0)
(0.101906 -0.000421943 0)
(0.104413 -0.00031746 0)
(0.105531 0.0381713 0)
(0.0753201 0.0172025 0)
(0.0418591 0.00421067 0)
(0.0336643 0.0113595 0)
(0.0501644 0.0392969 0)
(0.0743726 0.0472581 0)
(0.0870608 0.0442278 0)
(0.0981652 0.0305543 0)
(0.105067 0.010548 0)
(0.108913 -0.0104199 0)
(0.109053 -0.027657 0)
(0.106917 -0.0391503 0)
(0.105661 -0.0486482 0)
(0.10716 -0.0575985 0)
(0.11119 -0.0644338 0)
(0.114461 -0.0685103 0)
(0.114713 -0.0688745 0)
(0.112874 -0.0644438 0)
(0.107156 -0.0574664 0)
(0.101727 -0.0485213 0)
(0.0986174 -0.0388247 0)
(0.0955621 -0.0313717 0)
(0.0935863 -0.0255417 0)
(0.0939236 -0.0202342 0)
(0.0953696 -0.0159135 0)
(0.0971561 -0.01288 0)
(0.098865 -0.0104246 0)
(0.100213 -0.00846648 0)
(0.100714 -0.00694376 0)
(0.100666 -0.0058331 0)
(0.100618 -0.00454112 0)
(0.101138 -0.00290219 0)
(0.101975 -0.00123689 0)
(0.103181 0.000191127 0)
(0.103721 0.000655839 0)
(0.104651 0.000831699 0)
(0.104232 9.08815e-05 0)
(0.104973 -0.000228334 0)
(0.104263 -0.00096995 0)
(0.105079 -0.00124279 0)
(0.139443 0.042703 0)
(0.132636 0.0371862 0)
(0.121198 0.0378438 0)
(0.104668 0.0381195 0)
(0.0915536 0.0391907 0)
(0.10037 0.0369622 0)
(0.110074 0.0326891 0)
(0.120993 0.0213058 0)
(0.128977 0.00522709 0)
(0.133183 -0.012651 0)
(0.134232 -0.0280086 0)
(0.134369 -0.0394849 0)
(0.135949 -0.0491386 0)
(0.137408 -0.0584737 0)
(0.136465 -0.0658365 0)
(0.133688 -0.0679744 0)
(0.127776 -0.0655075 0)
(0.119605 -0.0600075 0)
(0.11206 -0.0520537 0)
(0.105326 -0.0437352 0)
(0.10081 -0.0358222 0)
(0.0986852 -0.0289103 0)
(0.0975854 -0.0237709 0)
(0.0972736 -0.0202678 0)
(0.0978449 -0.0174774 0)
(0.0994579 -0.0147511 0)
(0.101515 -0.0117409 0)
(0.103181 -0.00904941 0)
(0.103802 -0.00695429 0)