/*--------------------------------*- C++ -*----------------------------------*\
| =========                 |                                                 |
| \\      /  F ield         | OpenFOAM: The Open Source CFD Toolbox           |
|  \\    /   O peration     | Version:  2112                                  |
|   \\  /    A nd           | Website:  www.openfoam.com                      |
|    \\/     M anipulation  |                                                 |
\*---------------------------------------------------------------------------*/
FoamFile
{
    version     2.0;
    format      ascii;
    arch        "LSB;label=32;scalar=64";
    class       volScalarField;
    location    "0.21";
    object      nut;
}
// * * * * * * * * * * * * * * * * * * * * * * * * * * * * * * * * * * * * * //

dimensions      [0 2 -1 0 0 0 0];

internalField   nonuniform List<scalar> 
1880
(
3.5306e-11
4.67597e-12
2.78454e-13
1.95486e-14
1.02058e-13
3.30142e-14
1.30274e-14
6.77443e-14
3.1549e-16
7.80721e-15
2.39255e-14
3.25037e-13
1.26627e-13
2.53139e-13
1.95868e-13
5.33496e-13
5.31173e-13
8.52235e-13
2.40895e-13
5.09446e-13
9.05157e-13
8.41457e-13
1.03739e-11
2.26884e-12
6.09112e-11
1.867e-12
1.01154e-10
2.93283e-10
2.07531e-11
1.08765e-08
4.93512e-09
5.61208e-09
1.26234e-09
3.01652e-10
2.78575e-11
3.78509e-12
1.67939e-11
2.97575e-11
3.46063e-12
4.51792e-13
3.61859e-11
2.76148e-11
1.30685e-11
1.76318e-11
4.11356e-11
3.05249e-12
7.34249e-12
7.89208e-12
1.00631e-11
4.4203e-12
1.00867e-11
8.10235e-11
8.45767e-11
2.26087e-10
8.3241e-10
2.76754e-09
4.00931e-09
1.34151e-08
2.22626e-08
1.23061e-08
1.51806e-09
2.56077e-09
7.56861e-10
7.23331e-10
6.21195e-10
9.09525e-10
1.74335e-09
5.56461e-09
3.00363e-09
1.5868e-09
6.28674e-10
3.90542e-09
2.75387e-11
9.96775e-10
7.07413e-11
6.45303e-11
3.64151e-10
1.02707e-09
1.2328e-09
2.68998e-10
1.19903e-09
8.31035e-09
1.55634e-09
1.26319e-08
1.39316e-08
8.77896e-09
2.78822e-08
2.59066e-08
2.3887e-08
7.42556e-08
3.0691e-12
6.33529e-11
4.70694e-10
9.71948e-10
3.07739e-10
2.77218e-10
2.57614e-09
4.73854e-09
2.01503e-10
1.16415e-09
4.49572e-09
1.74518e-08
1.36259e-10
2.19461e-08
2.96541e-09
2.10207e-08
2.22157e-09
6.76751e-09
4.36622e-09
8.50661e-09
7.72502e-09
6.70547e-09
8.86457e-09
1.12164e-08
1.61798e-08
2.04791e-08
2.44792e-08
2.57121e-08
3.06632e-08
4.00257e-08
7.09454e-12
9.29297e-10
2.49616e-10
3.03324e-10
7.80179e-10
1.47098e-10
1.71646e-09
1.90194e-09
2.32577e-09
5.54768e-12
1.49466e-09
1.33411e-08
4.28271e-09
1.32409e-08
2.03882e-09
1.77448e-08
1.00897e-08
6.90961e-09
1.18044e-08
7.31004e-09
1.09103e-08
9.1479e-09
7.31935e-09
1.28964e-08
1.0666e-08
1.36054e-08
1.85507e-08
2.26406e-08
2.22842e-08
3.56749e-08
5.92548e-12
8.40406e-11
1.96275e-10
5.74582e-10
8.92625e-11
7.66576e-11
4.09383e-09
3.31381e-10
7.25096e-10
4.12622e-10
3.49489e-09
1.09956e-08
2.15755e-09
5.77041e-09
5.2071e-10
5.9114e-09
5.40531e-09
5.66181e-09
3.41463e-09
5.83136e-09
5.32384e-09
6.15983e-09
6.90716e-09
1.04319e-08
1.01083e-08
1.49182e-08
1.68507e-08
2.07231e-08
2.54142e-08
2.58101e-08
3.38033e-12
3.73019e-10
1.95951e-10
4.74691e-10
1.31509e-09
4.49629e-10
3.11473e-09
1.27622e-09
2.62158e-09
4.99026e-10
2.38616e-09
6.80787e-10
4.99966e-09
2.75565e-09
2.91831e-09
4.29765e-09
9.78033e-09
6.2704e-09
7.02841e-09
5.75189e-09
5.41339e-09
7.27813e-09
5.67649e-09
9.86334e-09
1.06858e-08
1.16632e-08
1.60201e-08
1.72573e-08
1.99027e-08
2.4453e-08
9.85042e-12
3.29293e-10
3.50219e-10
7.81387e-10
1.09604e-09
5.40654e-10
4.12196e-09
9.77124e-10
2.00468e-09
1.1999e-09
3.40889e-09
5.76599e-10
3.47157e-09
3.26384e-09
1.96357e-09
3.65671e-09
5.79782e-09
4.38871e-09
3.89466e-09
4.31365e-09
4.91179e-09
6.18838e-09
6.51349e-09
9.6254e-09
1.01976e-08
1.30402e-08
1.56071e-08
1.61025e-08
1.98767e-08
2.05437e-08
1.92868e-11
4.72308e-10
5.14954e-10
9.8159e-10
1.68027e-09
9.02627e-10
3.95758e-09
1.61885e-09
2.76156e-09
1.61468e-09
3.30646e-09
1.42188e-09
3.9819e-09
3.3894e-09
2.57003e-09
3.65319e-09
5.85121e-09
4.11691e-09
3.73993e-09
4.81217e-09
4.49286e-09
6.89045e-09
6.61878e-09
8.49125e-09
1.01033e-08
1.08947e-08
1.40846e-08
1.50708e-08
1.68654e-08
1.93838e-08
4.5001e-11
6.96443e-10
7.29368e-10
1.22725e-09
2.01946e-09
1.18584e-09
4.113e-09
1.87114e-09
2.91753e-09
2.05294e-09
3.66097e-09
2.02492e-09
3.58387e-09
3.33125e-09
2.73638e-09
3.3892e-09
4.8213e-09
4.00802e-09
4.07763e-09
4.87655e-09
5.21939e-09
6.40179e-09
6.93534e-09
8.67484e-09
1.00514e-08
1.10748e-08
1.3158e-08
1.35323e-08
1.60383e-08
1.73009e-08
1.42998e-10
1.00368e-09
9.3979e-10
1.46003e-09
2.17516e-09
1.39999e-09
4.35187e-09
1.90891e-09
2.87078e-09
2.45988e-09
4.04229e-09
2.30586e-09
3.355e-09
3.48917e-09
3.09187e-09
3.49296e-09
4.19741e-09
4.26563e-09
4.30606e-09
5.38508e-09
5.53256e-09
6.60954e-09
7.05919e-09
8.08192e-09
9.55711e-09
1.0322e-08
1.1924e-08
1.31034e-08
1.44065e-08
1.63307e-08
3.25198e-10
1.28472e-09
1.03477e-09
1.54021e-09
2.47376e-09
1.65363e-09
4.09525e-09
2.26292e-09
3.38103e-09
2.60442e-09
3.9274e-09
2.96695e-09
3.73135e-09
3.3295e-09
3.40996e-09
3.52303e-09
4.34448e-09
4.49506e-09
4.72222e-09
5.50943e-09
5.79607e-09
6.44532e-09
7.18255e-09
8.08071e-09
9.1676e-09
9.90718e-09
1.12512e-08
1.22181e-08
1.3778e-08
1.50186e-08
1.92241e-10
1.04871e-09
1.05926e-09
1.66699e-09
2.12944e-09
1.70151e-09
4.41128e-09
2.05871e-09
3.02295e-09
2.87877e-09
4.37376e-09
2.8842e-09
3.32417e-09
3.59891e-09
3.85348e-09
3.71323e-09
3.97243e-09
4.74909e-09
5.13477e-09
5.69423e-09
6.04322e-09
6.47652e-09
7.14681e-09
7.90323e-09
8.6917e-09
9.59532e-09
1.05328e-08
1.1814e-08
1.28907e-08
1.42057e-08
3.82393e-11
1.0569e-09
9.18086e-10
1.46231e-09
2.53031e-09
1.88638e-09
3.89521e-09
2.37149e-09
3.54172e-09
2.91531e-09
4.19752e-09
3.40472e-09
3.82411e-09
3.57631e-09
3.96855e-09
3.91826e-09
4.40213e-09
5.04969e-09
5.26021e-09
5.85599e-09
6.07597e-09
6.46044e-09
7.04688e-09
7.68075e-09
8.34319e-09
9.19754e-09
1.01129e-08
1.11637e-08
1.23319e-08
1.3355e-08
2.19538e-11
2.57248e-10
8.07616e-10
1.64324e-09
1.13217e-09
1.71786e-09
4.50718e-09
1.74914e-09
2.48243e-09
3.09239e-09
4.54754e-09
3.1008e-09
3.42563e-09
3.70341e-09
4.28422e-09
3.84629e-09
4.04252e-09
4.95883e-09
5.50664e-09
5.77706e-09
6.13127e-09
6.34264e-09
6.85113e-09
7.50536e-09
7.9589e-09
8.89692e-09
9.65365e-09
1.07083e-08
1.17277e-08
1.27366e-08
2.58511e-11
1.38787e-09
9.94794e-10
1.36729e-09
2.00744e-09
1.82952e-09
3.10422e-09
2.55401e-09
3.6114e-09
2.86966e-09
3.86003e-09
3.60191e-09
3.88093e-09
3.71418e-09
4.28739e-09
4.14054e-09
4.47906e-09
5.27694e-09
5.41817e-09
5.79013e-09
5.88719e-09
6.12403e-09
6.48248e-09
7.05511e-09
7.57225e-09
8.4474e-09
9.24724e-09
1.01889e-08
1.1232e-08
1.21736e-08
6.28785e-12
3.78775e-12
4.25929e-10
1.41987e-09
3.07174e-10
1.31767e-09
3.02172e-09
8.87956e-10
1.2604e-09
3.04778e-09
4.15004e-09
2.63104e-09
2.95584e-09
3.88331e-09
4.74308e-09
4.09714e-09
4.24899e-09
4.91686e-09
5.32186e-09
5.27284e-09
5.3464e-09
5.4495e-09
5.85443e-09
6.487e-09
7.06764e-09
7.97637e-09
8.83123e-09
9.75052e-09
1.0777e-08
1.1713e-08
1.78176e-09
3.02917e-09
1.53743e-09
1.8438e-09
1.84771e-09
2.46569e-09
2.88701e-09
4.6339e-09
4.50195e-09
3.05597e-09
1.67129e-09
1.34613e-09
6.58736e-10
7.51544e-10
3.44848e-10
1.21133e-10
3.53613e-10
1.94508e-09
4.39798e-09
4.14083e-09
2.53536e-09
3.13042e-10
2.69336e-11
6.4726e-11
4.06014e-10
1.57311e-09
2.62835e-09
4.4708e-09
5.8052e-09
7.82518e-09
5.01402e-09
5.36925e-09
1.07355e-09
2.69799e-10
9.48274e-12
1.15469e-12
3.85464e-12
2.87133e-12
1.41159e-14
1.12587e-11
1.06906e-11
3.29153e-12
6.53869e-13
5.9539e-13
2.42712e-12
5.42548e-12
5.09922e-11
1.16383e-10
1.16622e-10
8.83599e-11
5.16102e-11
2.16022e-11
1.08805e-11
3.85365e-12
1.55791e-12
8.73439e-13
3.64932e-13
1.17456e-13
3.49952e-14
1.01716e-14
3.45708e-11
4.5388e-12
2.50757e-13
1.11849e-14
1.04133e-13
1.73773e-14
4.40113e-15
1.7087e-14
1.30406e-15
3.42664e-14
6.90322e-15
1.5555e-14
3.73062e-15
3.34325e-16
7.02371e-15
1.8046e-13
6.35317e-13
8.13966e-13
5.60702e-13
2.86188e-13
9.8638e-14
3.36205e-14
1.06403e-14
3.48414e-15
2.00176e-15
1.7513e-15
5.33253e-16
8.13743e-16
9.38163e-17
9.94242e-17
2.09388e-08
4.54448e-10
1.20668e-11
3.11093e-09
2.55509e-10
9.06366e-11
1.17587e-09
5.22611e-10
1.26324e-10
4.2902e-09
3.59548e-08
1.01197e-07
5.16626e-10
2.64689e-09
1.07479e-07
8.25243e-08
8.67687e-08
1.04866e-06
7.48894e-08
1.02403e-07
2.12308e-08
3.75998e-08
5.45395e-08
2.57224e-08
3.81168e-08
5.85868e-08
7.60442e-08
3.68915e-07
5.35723e-07
4.87518e-08
6.73798e-08
2.78513e-08
3.43846e-08
4.67039e-08
1.51147e-08
4.59092e-08
5.39352e-08
6.05769e-08
1.85921e-08
4.27115e-08
4.10097e-08
3.30098e-08
3.57212e-08
4.09879e-08
3.41202e-08
4.11068e-08
5.10189e-08
4.40175e-08
1.98701e-08
4.52403e-08
4.28445e-08
2.91914e-08
3.23727e-08
3.58951e-08
3.56021e-08
4.14566e-08
4.15248e-08
5.11872e-08
3.35432e-08
3.01765e-08
3.24676e-08
2.66965e-08
3.01842e-08
2.90879e-08
3.13172e-08
3.61237e-08
3.74827e-08
3.40292e-08
3.16517e-08
3.19786e-08
3.13346e-08
2.43708e-08
2.7687e-08
2.95457e-08
2.8583e-08
3.32408e-08
3.39305e-08
3.42614e-08
2.77525e-08
2.74481e-08
2.57893e-08
2.22466e-08
2.50045e-08
2.55511e-08
2.7091e-08
2.97573e-08
2.86358e-08
2.83805e-08
2.85306e-08
2.61857e-08
2.3754e-08
2.05992e-08
2.32799e-08
2.45531e-08
2.37276e-08
2.6559e-08
2.78873e-08
2.6283e-08
2.3233e-08
2.34537e-08
2.0407e-08
1.89848e-08
2.10488e-08
2.22172e-08
2.27211e-08
2.40828e-08
2.37778e-08
2.33764e-08
2.28445e-08
2.10939e-08
1.87143e-08
1.76789e-08
1.96615e-08
2.0747e-08
2.06515e-08
2.18771e-08
2.22177e-08
2.11114e-08
1.97113e-08
1.89433e-08
1.66362e-08
1.64931e-08
1.80775e-08
1.92049e-08
1.95524e-08
1.99814e-08
1.97316e-08
1.91654e-08
1.8381e-08
1.70488e-08
1.53724e-08
1.54736e-08
1.6934e-08
1.78596e-08
1.81669e-08
1.84378e-08
1.81903e-08
1.74363e-08
1.65089e-08
1.53543e-08
1.41558e-08
1.46078e-08
1.5812e-08
1.66746e-08
1.70527e-08
1.71049e-08
1.66718e-08
1.60077e-08
1.52068e-08
1.39518e-08
1.3357e-08
1.38742e-08
1.49547e-08
1.56102e-08
1.59645e-08
1.60033e-08
1.55497e-08
1.48481e-08
1.40034e-08
1.27982e-08
1.26599e-08
1.32014e-08
1.41626e-08
1.4681e-08
1.50503e-08
1.50321e-08
1.46218e-08
1.3877e-08
1.3146e-08
1.17737e-08
8.84576e-09
8.13219e-09
9.49181e-09
8.59665e-09
9.51649e-09
8.03273e-09
8.10734e-09
6.01483e-09
5.55016e-09
3.46404e-09
5.85897e-14
6.50309e-13
1.71627e-12
6.01562e-12
1.14513e-11
2.12456e-11
2.63094e-11
3.32013e-11
3.17014e-11
2.79312e-11
2.54101e-15
3.06228e-15
6.35934e-15
1.07864e-14
1.79143e-14
3.54571e-14
4.21059e-14
6.89014e-14
5.86105e-14
4.46456e-14
5.51e-10
4.07339e-08
7.66486e-09
1.29809e-08
9.9619e-09
3.868e-09
1.24198e-09
6.41041e-10
9.40255e-10
2.39629e-09
7.20619e-09
2.67056e-08
1.1229e-07
1.08072e-07
1.90732e-08
2.35213e-09
3.43787e-10
5.72221e-11
9.39166e-12
1.18566e-12
6.87623e-14
1.68954e-17
7.01582e-15
2.43786e-14
3.03254e-14
2.50222e-14
1.62457e-14
8.88386e-15
4.37121e-15
2.07016e-15
9.63212e-16
4.69586e-16
2.3402e-16
1.27534e-16
7.08352e-17
4.16074e-17
2.65243e-17
1.3241e-17
1.25896e-17
6.50967e-18
8.14142e-08
1.26895e-08
6.87819e-08
1.87696e-07
1.81305e-07
3.17542e-08
1.28543e-06
3.14534e-08
4.80178e-09
5.11155e-08
1.12634e-07
1.1677e-07
1.18687e-07
1.06771e-07
9.17274e-08
7.38405e-08
5.47086e-08
3.54374e-08
1.8469e-08
7.21586e-09
2.13957e-09
5.09744e-10
9.97698e-11
1.47491e-11
1.32805e-12
3.13898e-14
3.20928e-15
3.46244e-14
6.05888e-14
5.69979e-14
4.34461e-14
2.69043e-14
1.80969e-14
9.913e-15
7.1298e-15
3.77899e-15
3.04948e-15
1.51616e-15
1.34437e-15
5.64433e-16
1.02583e-08
1.04906e-07
1.47235e-07
7.28853e-08
1.9679e-08
2.27216e-06
2.16629e-06
5.66468e-07
1.18983e-08
3.26897e-09
5.75197e-08
9.68204e-08
1.04938e-07
9.65915e-08
8.17982e-08
6.56938e-08
5.16925e-08
4.19962e-08
3.52275e-08
2.95075e-08
2.41661e-08
1.89499e-08
1.36216e-08
8.23396e-09
3.86158e-09
1.29737e-09
3.20833e-10
5.89485e-11
8.41327e-12
8.38257e-13
3.95338e-14
4.18881e-15
1.02976e-14
1.97771e-14
2.95139e-14
2.58174e-14
3.2799e-14
2.24628e-14
2.75093e-14
1.29773e-14
9.33861e-07
5.38181e-08
8.14412e-08
5.33415e-08
6.09639e-07
2.87219e-06
2.60934e-06
1.30028e-06
4.14409e-07
4.8715e-09
1.64344e-08
8.79704e-08
1.24695e-07
1.22837e-07
1.07261e-07
8.60701e-08
5.97866e-08
3.54322e-08
2.24336e-08
1.82186e-08
1.77471e-08
1.70483e-08
1.50557e-08
1.24828e-08
1.0022e-08
7.8174e-09
5.95782e-09
4.33952e-09
2.97675e-09
1.79257e-09
9.34869e-10
3.82066e-10
1.29979e-10
3.50311e-11
7.63949e-12
1.29739e-12
6.57157e-14
5.8531e-16
4.1433e-14
4.44781e-14
1.78942e-07
5.23367e-08
1.50269e-07
6.15615e-09
1.76909e-06
3.07641e-06
2.53838e-06
1.45375e-06
1.02085e-06
2.74978e-07
2.9682e-10
1.89337e-08
8.19776e-08
1.08086e-07
9.3163e-08
4.47414e-08
1.52545e-08
1.82111e-08
2.75125e-08
1.398e-08
8.58783e-09
9.41874e-09
1.11575e-08
1.08563e-08
9.21985e-09
7.32934e-09
5.7084e-09
4.38815e-09
3.41385e-09
2.64338e-09
2.10644e-09
1.65814e-09
1.34524e-09
1.06849e-09
8.69749e-10
6.89343e-10
5.52346e-10
4.41667e-10
3.51772e-10
3.04019e-10
1.0219e-08
1.37371e-07
4.37388e-08
1.76612e-09
1.22804e-06
2.67192e-06
1.75939e-06
9.15076e-07
1.07368e-06
6.1464e-07
1.37428e-08
4.5335e-09
5.00115e-08
8.83409e-08
7.9667e-08
5.83671e-08
4.55916e-09
3.6358e-08
1.88218e-08
3.62793e-09
5.27715e-09
6.63834e-09
6.19496e-09
7.76019e-09
8.11516e-09
7.0575e-09
5.63226e-09
4.33657e-09
3.35168e-09
2.57364e-09
2.03295e-09
1.59158e-09
1.30034e-09
1.0419e-09
8.84066e-10
7.23874e-10
6.40672e-10
5.46865e-10
5.11095e-10
4.72153e-10
1.17414e-07
2.6302e-07
1.11892e-07
9.30245e-08
1.37356e-08
1.86584e-06
2.12285e-06
1.51547e-06
1.92282e-06
1.60398e-06
5.18426e-08
1.35272e-08
6.63416e-08
1.00142e-07
9.02003e-08
7.30191e-08
4.82034e-08
6.33928e-08
2.02109e-08
1.2983e-09
4.73409e-11
5.81311e-11
3.16224e-09
6.44877e-09
6.07876e-09
5.80707e-09
5.09165e-09
4.10382e-09
3.21923e-09
2.47509e-09
1.96209e-09
1.52835e-09
1.25099e-09
9.91622e-10
8.43579e-10
6.81446e-10
6.05132e-10
5.0816e-10
4.7893e-10
4.37973e-10
1.08194e-08
4.05436e-08
4.12104e-11
5.02069e-09
5.82445e-09
1.86351e-07
6.0285e-07
1.12118e-06
1.91937e-06
1.67635e-06
3.59636e-09
8.37283e-08
8.92921e-08
7.02567e-08
6.50395e-09
2.98263e-08
4.99228e-08
1.67334e-08
2.0709e-08
1.88044e-08
5.12159e-09
1.80351e-09
7.68766e-10
4.7035e-10
1.52171e-09
4.25607e-09
4.54792e-09
3.88379e-09
3.15853e-09
2.48867e-09
1.97148e-09
1.54033e-09
1.24195e-09
9.84922e-10
8.27656e-10
6.66827e-10
5.8544e-10
4.85864e-10
4.54545e-10
4.12787e-10
1.31976e-08
6.52301e-10
1.68805e-07
2.41695e-07
1.15166e-06
1.69652e-06
1.05218e-06
7.71293e-07
1.42957e-06
4.76372e-07
3.68032e-08
1.04464e-07
5.47203e-08
6.01817e-08
3.42465e-08
6.4429e-09
3.74726e-08
5.66157e-09
3.95386e-10
2.05068e-09
1.18729e-08
2.80443e-08
2.29639e-08
9.0079e-09
2.37345e-09
4.46969e-10
3.72551e-10
1.47437e-09
2.42048e-09
2.3182e-09
1.99915e-09
1.60282e-09
1.30173e-09
1.00588e-09
8.2738e-10
6.38071e-10
5.47769e-10
4.34638e-10
4.00408e-10
3.55524e-10
1.11675e-08
5.59209e-08
1.12792e-07
4.11869e-07
9.54397e-07
1.31743e-06
3.71505e-08
5.98859e-10
3.91007e-09
6.19925e-08
1.34816e-07
1.15794e-07
8.79325e-08
6.75866e-08
6.39539e-08
4.9783e-08
3.3446e-08
3.60811e-08
3.07393e-08
1.19092e-08
4.67764e-09
4.50852e-09
8.50203e-09
1.55397e-08
1.80277e-08
1.22181e-08
5.60246e-09
2.37568e-09
1.44726e-09
1.275e-09
1.34194e-09
1.20183e-09
1.03591e-09
8.24079e-10
6.92747e-10
5.47039e-10
4.70559e-10
3.68194e-10
3.33132e-10
2.90843e-10
4.13654e-08
6.08268e-08
3.6635e-08
4.03673e-08
2.28279e-08
6.63245e-08
7.98415e-08
3.26177e-08
6.46523e-08
1.05698e-07
9.29722e-08
6.33144e-08
6.83309e-08
6.10441e-08
4.79528e-08
3.72761e-08
5.92513e-09
4.52298e-09
1.86425e-07
2.14311e-07
2.0105e-07
2.26624e-07
7.25566e-09
1.25806e-08
8.83665e-09
7.5468e-09
6.87492e-09
6.14251e-09
5.05918e-09
3.87511e-09
2.90481e-09
2.12686e-09
1.57201e-09
1.1236e-09
8.45126e-10
5.97444e-10
4.70821e-10
3.29516e-10
2.77955e-10
2.21133e-10
5.13792e-08
7.63901e-08
6.51896e-08
6.93072e-08
7.52952e-08
5.9815e-08
5.26743e-08
4.57981e-08
6.6969e-08
7.60834e-08
4.73748e-08
5.99131e-08
4.02581e-08
5.76396e-08
4.19676e-08
8.08578e-09
3.32452e-09
4.36218e-08
4.98109e-08
3.42839e-08
2.7766e-07
1.15416e-07
5.63586e-08
6.31466e-08
8.49186e-08
6.70172e-08
1.00592e-08
9.69986e-11
8.34167e-10
1.505e-09
1.7311e-09
1.51205e-09
1.19517e-09
8.79415e-10
6.75759e-10
4.90773e-10
3.87423e-10
2.57641e-10
1.99246e-10
1.12899e-10
3.83586e-08
5.42185e-08
5.94772e-08
5.74985e-08
5.33055e-08
4.46837e-08
4.97156e-08
5.73549e-08
5.94073e-08
3.55045e-08
5.84839e-08
7.77527e-08
4.27278e-08
2.70668e-08
2.22395e-08
3.96107e-08
3.42223e-08
8.07828e-08
1.57103e-08
8.28985e-10
9.48145e-10
5.79941e-10
6.63511e-09
2.01558e-08
2.04045e-08
1.14799e-08
6.38105e-09
4.61731e-09
3.94521e-09
3.33056e-09
2.71703e-09
2.06742e-09
1.54489e-09
1.09382e-09
7.96026e-10
5.39512e-10
3.97269e-10
2.3435e-10
1.35563e-10
4.56163e-12
4.39073e-08
4.72488e-08
4.61791e-08
4.80781e-08
5.01006e-08
3.7307e-08
3.03409e-08
4.81151e-08
3.67867e-08
4.60101e-08
1.08666e-08
4.77731e-08
2.09281e-08
2.66874e-08
4.07025e-09
4.10278e-08
2.31676e-08
3.83862e-09
2.91941e-08
2.71229e-08
1.04234e-08
1.35275e-08
2.59133e-08
2.74188e-08
2.23284e-08
1.57308e-08
1.03936e-08
6.95515e-09
4.97222e-09
3.72886e-09
2.87005e-09
2.14354e-09
1.57977e-09
1.10544e-09
7.92137e-10
5.30433e-10
3.8253e-10
2.11145e-10
6.47958e-11
9.85639e-15
3.21632e-08
3.70529e-08
3.89479e-08
3.84165e-08
3.69248e-08
3.24179e-08
3.70274e-08
2.61694e-08
3.87013e-08
4.71925e-08
4.25012e-08
7.74548e-09
3.5124e-08
4.95631e-08
3.29775e-08
1.30539e-09
1.92891e-08
8.87913e-09
2.30772e-08
3.22046e-08
1.13156e-08
3.39404e-07
2.96253e-07
1.59232e-07
3.64019e-08
3.16768e-09
3.5655e-09
5.0459e-09
4.74951e-09
3.83828e-09
2.93328e-09
2.15319e-09
1.52515e-09
1.05391e-09
7.43283e-10
5.04875e-10
3.69245e-10
2.12513e-10
8.44744e-11
2.20342e-13
3.06811e-08
3.28051e-08
3.10448e-08
3.36613e-08
3.22498e-08
2.61024e-08
2.77142e-08
3.06759e-08
2.65752e-08
2.54799e-08
2.63435e-08
3.52541e-08
1.0964e-08
2.0431e-08
1.33271e-08
1.06068e-08
8.71818e-09
3.75148e-08
1.10357e-08
3.55214e-09
2.86299e-10
9.96854e-10
5.13065e-09
1.23672e-08
1.54435e-08
1.38922e-08
1.08386e-08
8.06166e-09
5.9779e-09
4.42874e-09
3.29963e-09
2.39312e-09
1.72995e-09
1.19427e-09
8.55735e-10
5.75229e-10
4.25546e-10
2.6268e-10
1.86196e-10
5.90338e-11
2.53741e-08
2.5758e-08
2.67306e-08
2.60887e-08
2.65188e-08
2.80088e-08
2.40258e-08
2.5657e-08
2.97735e-08
2.79369e-08
1.73751e-08
3.15622e-08
2.4875e-08
2.23735e-08
9.10432e-09
2.26742e-08
2.4514e-08
9.92306e-09
9.42722e-09
5.69295e-08
1.67144e-08
2.79603e-09
9.09997e-09
1.23674e-08
1.1709e-08
9.74186e-09
7.94076e-09
6.42542e-09
5.04153e-09
3.84307e-09
2.80658e-09
2.00965e-09
1.40097e-09
9.87508e-10
7.29934e-10
5.33461e-10
4.23807e-10
2.99641e-10
2.46582e-10
1.91478e-10
2.29136e-08
2.32153e-08
2.21798e-08
2.32148e-08
2.23461e-08
2.04359e-08
2.3074e-08
2.29104e-08
2.09424e-08
2.60208e-08
2.56482e-08
1.83947e-08
2.06983e-08
2.81331e-08
2.34755e-08
1.25414e-08
1.30631e-08
2.00052e-08
2.13688e-08
1.85815e-08
1.46496e-08
1.21853e-08
1.22233e-08
1.20449e-08
1.1179e-08
9.82675e-09
8.24886e-09
6.66143e-09
5.25014e-09
4.0127e-09
3.03302e-09
2.20757e-09
1.61823e-09
1.14179e-09
8.60245e-10
6.17631e-10
4.97603e-10
3.64843e-10
3.18021e-10
2.67535e-10
1.9398e-08
1.90962e-08
1.8641e-08
1.86545e-08
1.87106e-08
1.93089e-08
1.80685e-08
1.90869e-08
2.12648e-08
1.90545e-08
1.96718e-08
2.33423e-08
2.0913e-08
1.70091e-08
1.95655e-08
2.16136e-08
1.99939e-08
1.55781e-08
1.0217e-08
9.00567e-09
1.30341e-08
1.54538e-08
1.52019e-08
1.33784e-08
1.10581e-08
8.81783e-09
6.93415e-09
5.40562e-09
4.1766e-09
3.17625e-09
2.37147e-09
1.75333e-09
1.30847e-09
9.90243e-10
7.95767e-10
6.22721e-10
5.2851e-10
4.18573e-10
3.79406e-10
3.33658e-10
1.73303e-08
1.69617e-08
1.60583e-08
1.60599e-08
1.56129e-08
1.52826e-08
1.60475e-08
1.58998e-08
1.60063e-08
1.78442e-08
1.78515e-08
1.62532e-08
1.74099e-08
1.90888e-08
1.80939e-08
1.4839e-08
1.35922e-08
1.57911e-08
1.6329e-08
1.46763e-08
1.2727e-08
1.10091e-08
9.69733e-09
8.78789e-09
8.00225e-09
7.09418e-09
6.10818e-09
5.06366e-09
4.10178e-09
3.19831e-09
2.48259e-09
1.85797e-09
1.43571e-09
1.07983e-09
8.78286e-10
6.83055e-10
5.88183e-10
4.75374e-10
4.39448e-10
3.92004e-10
1.49346e-08
1.44059e-08
1.3507e-08
1.32865e-08
1.30827e-08
1.31464e-08
1.3218e-08
1.36327e-08
1.43229e-08
1.43522e-08
1.51384e-08
1.63703e-08
1.6089e-08
1.52873e-08
1.62426e-08
1.68487e-08
1.58405e-08
1.41722e-08
1.2595e-08
1.13992e-08
1.12388e-08
1.15021e-08
1.11285e-08
1.00724e-08
8.69115e-09
7.21539e-09
5.84812e-09
4.63356e-09
3.63281e-09
2.80374e-09
2.17546e-09
1.67815e-09
1.3397e-09
1.06288e-09
8.92346e-10
7.20127e-10
6.31424e-10
5.24874e-10
4.91111e-10
4.42553e-10
1.33165e-08
1.26158e-08
1.16795e-08
1.12258e-08
1.0814e-08
1.06759e-08
1.10374e-08
1.12312e-08
1.1671e-08
1.26322e-08
1.33078e-08
1.35123e-08
1.41276e-08
1.47365e-08
1.47805e-08
1.44406e-08
1.37137e-08
1.34637e-08
1.35254e-08
1.29126e-08
1.16302e-08
1.01975e-08
8.87189e-09
7.6429e-09
6.60361e-09
5.63437e-09
4.77545e-09
3.94682e-09
3.248e-09
2.59164e-09
2.10128e-09
1.65342e-09
1.36291e-09
1.08537e-09
9.26556e-10
7.49667e-10
6.69767e-10
5.60159e-10
5.34471e-10
4.79637e-10
1.18419e-08
1.10127e-08
1.0004e-08
9.44963e-09
9.09476e-09
9.00493e-09
9.30237e-09
9.73139e-09
1.0324e-08
1.08249e-08
1.15767e-08
1.24454e-08
1.28809e-08
1.28957e-08
1.3122e-08
1.34781e-08
1.33746e-08
1.26775e-08
1.17819e-08
1.0899e-08
9.99476e-09
9.14132e-09
8.38342e-09
7.50028e-09
6.53541e-09
5.50994e-09
4.55633e-09
3.66255e-09
2.92791e-09
2.28104e-09
1.81514e-09
1.39202e-09
1.13612e-09
8.61673e-10
7.34488e-10
5.49251e-10
5.09596e-10
3.8995e-10
4.08063e-10
3.39447e-10
1.07944e-08
9.88329e-09
8.84421e-09
8.18977e-09
7.76949e-09
7.57633e-09
7.77241e-09
7.9023e-09
7.81882e-09
7.66619e-09
7.36988e-09
6.70251e-09
5.7551e-09
5.01294e-09
4.38466e-09
3.7849e-09
3.28302e-09
2.94715e-09
2.81775e-09
2.75314e-09
2.56951e-09
2.17811e-09
1.67293e-09
1.16379e-09
7.46009e-10
4.19989e-10
2.27909e-10
1.0532e-10
5.1565e-11
2.03821e-11
1.09463e-11
4.0616e-12
3.23777e-12
1.41123e-12
1.83781e-12
1.08538e-12
2.00555e-12
1.43895e-12
2.86929e-12
2.23655e-12
2.85924e-09
2.25218e-09
1.80792e-09
1.66731e-09
1.59789e-09
1.49775e-09
1.42181e-09
1.21255e-09
8.4436e-10
4.85525e-10
2.12296e-10
5.36127e-11
4.79649e-12
1.63261e-12
1.38689e-11
3.9113e-11
5.37141e-11
4.28713e-11
2.26262e-11
9.7003e-12
4.23779e-12
1.9465e-12
9.55738e-13
5.5278e-13
3.37369e-13
1.8658e-13
7.22067e-14
3.12026e-14
7.07174e-15
3.84599e-15
1.6746e-15
3.47235e-15
6.47667e-15
8.53322e-15
1.51177e-14
1.4602e-14
2.35125e-14
1.86571e-14
2.73077e-14
1.60444e-14
2.5614e-11
2.04348e-11
1.93123e-11
2.24884e-11
2.48614e-11
2.48735e-11
2.51604e-11
2.12176e-11
1.21924e-11
4.9501e-12
1.23455e-12
4.92456e-14
2.3984e-13
2.42605e-12
6.4759e-12
1.01941e-11
1.13887e-11
9.33807e-12
5.90964e-12
3.09776e-12
1.39969e-12
5.2262e-13
1.56659e-13
3.27255e-14
4.03129e-15
1.65851e-16
9.06543e-17
5.17962e-16
1.47769e-15
2.05944e-15
2.76152e-15
2.59301e-15
2.85838e-15
2.11377e-15
2.27612e-15
1.48098e-15
1.62013e-15
9.50201e-16
1.02405e-15
5.01394e-16
3.18705e-14
1.8192e-14
2.72171e-14
4.65066e-14
5.64441e-14
6.63793e-14
7.63916e-14
5.35898e-14
1.91986e-14
3.20548e-15
5.5356e-16
1.51307e-14
8.13014e-14
1.71516e-13
2.27491e-13
2.18412e-13
1.47374e-13
6.64841e-14
1.94357e-14
3.45859e-15
2.57023e-16
8.11391e-18
9.60008e-17
3.01367e-16
4.48142e-16
4.9579e-16
4.66875e-16
3.96733e-16
3.05301e-16
2.26501e-16
1.60741e-16
1.13506e-16
7.87047e-17
5.57351e-17
3.94754e-17
2.66294e-17
2.07575e-17
1.12024e-17
1.24744e-17
6.54314e-18
)
;

boundaryField
{
    inlet
    {
        type            calculated;
        value           nonuniform List<scalar> 
20
(
1.4405e-34
5.24826e-33
5.11646e-33
7.04887e-35
1.78555e-34
9.60454e-36
1.12329e-35
4.62258e-36
4.45194e-36
8.2941e-36
3.52654e-35
6.6605e-35
7.45165e-35
7.29655e-35
3.62979e-35
3.67584e-34
1.26647e-34
5.7886e-33
5.41457e-33
1.43737e-34
)
;
    }
    outlet
    {
        type            calculated;
        value           nonuniform List<scalar> 
27
(
2.18449e-33
1.89118e-33
1.55981e-33
1.13237e-33
3.10811e-34
1.05622e-35
1.01013e-39
1.28689e-36
1.18768e-34
8.88638e-34
1.42994e-33
1.78437e-33
2.08233e-33
2.3411e-33
2.54284e-33
2.49359e-33
1.65875e-34
1.9694e-36
5.16346e-39
2.29753e-40
3.99662e-40
2.64237e-39
1.52199e-36
1.50012e-34
2.67789e-33
2.60118e-33
2.42009e-33
)
;
    }
    lowerWall
    {
        type            fixedValue;
        value           uniform 0;
    }
    upperWall
    {
        type            fixedValue;
        value           uniform 0;
    }
    defaultFaces
    {
        type            empty;
    }
}


// ************************************************************************* //
