/*--------------------------------*- C++ -*----------------------------------*\
| =========                 |                                                 |
| \\      /  F ield         | OpenFOAM: The Open Source CFD Toolbox           |
|  \\    /   O peration     | Version:  2112                                  |
|   \\  /    A nd           | Website:  www.openfoam.com                      |
|    \\/     M anipulation  |                                                 |
\*---------------------------------------------------------------------------*/
FoamFile
{
    version     2.0;
    format      ascii;
    arch        "LSB;label=32;scalar=64";
    class       volScalarField;
    location    "0.21";
    object      p;
}
// * * * * * * * * * * * * * * * * * * * * * * * * * * * * * * * * * * * * * //

dimensions      [0 2 -2 0 0 0 0];

internalField   nonuniform List<scalar> 
1880
(
0.00349286
0.00335568
0.00326279
0.00321378
0.00318733
0.00316653
0.00314361
0.00312549
0.00310993
0.00309415
0.00307683
0.00307262
0.00306799
0.00306564
0.00305958
0.00306059
0.00306625
0.00308107
0.00310629
0.00314733
0.00319819
0.00326943
0.00335041
0.00345472
0.00357418
0.00372583
0.00389064
0.00410948
0.0043422
0.0045679
0.00331147
0.0032795
0.0032383
0.00320014
0.00317178
0.00315155
0.00312978
0.00311492
0.00310253
0.00308755
0.00306723
0.00306341
0.00306036
0.00305726
0.00304915
0.00304761
0.0030563
0.00306762
0.00309685
0.00312932
0.0031837
0.00324419
0.00332144
0.00341837
0.00351754
0.00366813
0.00378216
0.00401401
0.00412854
0.00438855
0.00327787
0.00325809
0.00322729
0.00319328
0.00316642
0.00314594
0.0031232
0.00310743
0.00309769
0.0030829
0.00306213
0.0030539
0.00305248
0.00304732
0.00304009
0.00303788
0.00304848
0.00306015
0.00308196
0.00311061
0.00315108
0.00320292
0.00326369
0.00333769
0.0034235
0.00351995
0.00362775
0.00373563
0.00383449
0.0038933
0.00321961
0.0032102
0.00319284
0.00316917
0.00314875
0.00313147
0.00310884
0.00309277
0.00308471
0.00307143
0.00305045
0.00304017
0.00303876
0.0030324
0.00302407
0.00301899
0.0030278
0.00303532
0.0030524
0.00307241
0.00310355
0.00314444
0.00318584
0.00324665
0.00329814
0.00337004
0.00343194
0.00348846
0.0035312
0.00352762
0.00319065
0.00318536
0.00317353
0.00315463
0.00313773
0.00312228
0.00309968
0.0030824
0.00307471
0.00306149
0.0030405
0.00302727
0.00302532
0.00301604
0.0030069
0.00299834
0.00300489
0.00300774
0.00301841
0.00303025
0.00305095
0.00307725
0.00310467
0.00314116
0.00317201
0.00321043
0.00323552
0.00325131
0.00324307
0.00319947
0.00316341
0.00315958
0.00315048
0.00313483
0.003121
0.00310803
0.00308639
0.00306879
0.00306083
0.00304768
0.00302626
0.00301156
0.00300777
0.00299681
0.00298486
0.00297365
0.00297492
0.00297423
0.00297629
0.00298155
0.00298963
0.00300422
0.00301589
0.00303158
0.00304371
0.00304828
0.0030499
0.00302533
0.00298709
0.0029153
0.0031429
0.00314023
0.003133
0.0031195
0.00310769
0.00309623
0.0030752
0.00305707
0.00304846
0.00303455
0.00301244
0.00299579
0.00299016
0.00297633
0.0029618
0.00294673
0.00294374
0.00293761
0.00293242
0.00292937
0.00292655
0.00292872
0.00292545
0.00292355
0.00291474
0.0028978
0.00287242
0.00282348
0.00275908
0.00266391
0.00312653
0.00312434
0.00311797
0.0031055
0.00309466
0.00308394
0.00306316
0.00304465
0.00303519
0.00302033
0.00299696
0.00297871
0.00297058
0.0029545
0.00293622
0.00291797
0.00290921
0.0028987
0.00288556
0.00287476
0.002862
0.00285111
0.00283672
0.00281574
0.00279295
0.00275497
0.00270969
0.00264274
0.00255544
0.00244324
0.00311383
0.00311185
0.00310585
0.00309385
0.00308346
0.00307294
0.00305205
0.00303294
0.00302251
0.00300642
0.00298158
0.0029615
0.00295092
0.00293217
0.00291027
0.00288823
0.00287429
0.00285881
0.00283833
0.00282011
0.00279747
0.00277616
0.00274977
0.00271514
0.00267778
0.00262433
0.00256234
0.00247973
0.00237638
0.00225168
0.00310458
0.0031026
0.00309664
0.00308461
0.00307412
0.00306331
0.00304191
0.00302195
0.00301033
0.00299284
0.00296622
0.00294422
0.00293091
0.0029096
0.00288384
0.00285814
0.00283908
0.00281855
0.00279173
0.00276557
0.00273541
0.00270338
0.0026678
0.00262085
0.00257119
0.00250618
0.00242897
0.00233543
0.00222054
0.00208532
0.00309873
0.0030966
0.00309035
0.00307789
0.00306682
0.00305525
0.00303294
0.00301182
0.00299884
0.0029798
0.00295124
0.00292717
0.00291114
0.00288723
0.00285771
0.00282835
0.00280436
0.00277904
0.00274613
0.00271323
0.00267571
0.00263535
0.00259086
0.00253438
0.00247415
0.00239922
0.00231094
0.00220834
0.00208509
0.001943
0.00309637
0.00309394
0.00308715
0.00307388
0.00306184
0.00304912
0.00302559
0.00300307
0.00298861
0.00296792
0.00293728
0.00291102
0.00289223
0.00286573
0.00283258
0.00279962
0.00277116
0.002741
0.002703
0.00266357
0.00262006
0.00257217
0.00252011
0.00245605
0.00238654
0.00230426
0.00220728
0.00209763
0.00196919
0.00182179
0.00309776
0.00309479
0.003087
0.00307233
0.00305868
0.00304422
0.00301902
0.0029949
0.00297889
0.0029565
0.00292373
0.0028953
0.00287386
0.00284486
0.00280821
0.00277184
0.00273918
0.00270461
0.00266199
0.00261707
0.00256816
0.00251427
0.0024557
0.00238558
0.00230887
0.0022205
0.00211742
0.00200247
0.00187014
0.00171994
0.00310371
0.00310013
0.00309119
0.00307488
0.00305934
0.00304287
0.00301581
0.00298999
0.0029723
0.0029479
0.00291266
0.00288179
0.00285769
0.00282606
0.00278605
0.00274628
0.00270981
0.00267105
0.00262445
0.00257466
0.00252121
0.00246235
0.00239828
0.00232349
0.00224109
0.00214806
0.00204076
0.0019217
0.00178714
0.00163534
0.00311409
0.003109
0.00309758
0.00307826
0.00305963
0.00304026
0.00301099
0.00298356
0.00296427
0.00293779
0.00290029
0.00286746
0.00284129
0.00280746
0.00276442
0.00272163
0.00268167
0.0026392
0.00258915
0.00253547
0.00247832
0.00241572
0.00234742
0.00226914
0.00218263
0.00208612
0.00197607
0.00185437
0.00171832
0.0015661
0.00313354
0.00312683
0.0031123
0.00308909
0.00306654
0.00304357
0.00301196
0.00298318
0.0029622
0.00293325
0.00289326
0.00285848
0.00282995
0.0027935
0.00274726
0.00270123
0.00265785
0.00261169
0.00255844
0.00250136
0.0024412
0.00237572
0.00230416
0.00222333
0.00213394
0.00203492
0.00192323
0.00179979
0.00166301
0.00151101
0.00315442
0.0031434
0.00312302
0.00309444
0.00306761
0.00304166
0.0030088
0.00297933
0.00295639
0.00292457
0.0028825
0.00284648
0.002816
0.00277682
0.00272753
0.00267859
0.00263242
0.00258331
0.00252797
0.00246905
0.0024073
0.00234035
0.00226693
0.00218474
0.00209377
0.00199326
0.00188079
0.00175669
0.00161988
0.00146849
0.00320794
0.00318631
0.00315206
0.00311257
0.00307854
0.00304853
0.00301456
0.00298408
0.00295806
0.00292265
0.00287887
0.00284211
0.00280958
0.00276789
0.00271667
0.00266615
0.00261715
0.00256445
0.00250529
0.00244408
0.00238086
0.00231278
0.00223819
0.00215521
0.00206345
0.00196206
0.00184934
0.00172501
0.00158849
0.00143836
0.0032369
0.00320299
0.00315822
0.00311407
0.00307809
0.00304733
0.00301373
0.00298252
0.00295337
0.00291507
0.00287088
0.0028343
0.00279999
0.00275569
0.00270132
0.00264612
0.00259141
0.00253504
0.00247698
0.00241675
0.00235507
0.00228824
0.00221438
0.00213235
0.00204108
0.00193972
0.00182752
0.00170364
0.00156743
0.00141787
0.00341658
0.00327728
0.00318044
0.00312521
0.00309079
0.00305904
0.00302344
0.00298865
0.00295512
0.00291553
0.00287293
0.0028354
0.00279782
0.00275237
0.00269923
0.00264383
0.00258674
0.00252808
0.00246831
0.0024075
0.00234443
0.00227737
0.00220351
0.00212176
0.00203064
0.00192939
0.00181744
0.00169426
0.00155933
0.0014124
0.00480284
0.00423711
0.00365357
0.00328067
0.00272211
0.00198896
0.00071769
-3.36039e-07
-0.000963402
-0.00283007
0.00442948
0.00371929
0.00318821
0.00284635
0.00213768
0.00132835
0.000376322
-0.00048618
-0.00135403
-0.00304755
0.00389314
0.00346207
0.00296979
0.0025895
0.00190592
0.00129474
0.000427652
-0.00045918
-0.00145768
-0.0026213
0.00349135
0.00307732
0.0026169
0.00217188
0.00157027
0.000891352
0.000178922
-0.000676629
-0.00154449
-0.00255585
0.00312658
0.00278834
0.00235373
0.00194865
0.00138987
0.000791544
0.00013194
-0.000655043
-0.00148141
-0.00233388
0.00281529
0.00249202
0.00210311
0.00165438
0.00117199
0.000568023
-3.71692e-05
-0.000739413
-0.00146402
-0.00218037
0.00254358
0.00225444
0.00188236
0.00147272
0.00102701
0.000488421
-8.70648e-05
-0.000711533
-0.00134081
-0.00196375
0.00231079
0.0020327
0.00169182
0.00128636
0.00087129
0.000374238
-0.000159918
-0.000725322
-0.00127514
-0.00181386
0.00210748
0.00185066
0.00152598
0.00115329
0.000764594
0.000315215
-0.000176482
-0.000679708
-0.00116134
-0.00163578
0.00193485
0.00169016
0.00138684
0.00103428
0.000667265
0.000256166
-0.000193038
-0.000650884
-0.00108116
-0.00150185
0.00178646
0.0015571
0.00127009
0.000943554
0.000599328
0.000220657
-0.000187833
-0.00059847
-0.000984707
-0.00136167
0.00166218
0.0014435
0.00117422
0.000868538
0.000544012
0.000193283
-0.00017836
-0.000552723
-0.000905777
-0.00124737
0.00155767
0.00134969
0.00109614
0.000810484
0.000505499
0.0001789
-0.000161028
-0.000502012
-0.000826065
-0.0011387
0.00147189
0.00127214
0.00103316
0.000765054
0.000477848
0.00017247
-0.00014104
-0.000455402
-0.000756729
-0.00104613
0.00140197
0.00120919
0.000983075
0.000730583
0.000459762
0.000173356
-0.000118813
-0.000410963
-0.00069279
-0.000963421
0.00134696
0.00115979
0.000944712
0.00070582
0.000449712
0.000179478
-9.5562e-05
-0.000370322
-0.000636923
-0.000892777
0.00130444
0.00112114
0.00091499
0.000687803
0.000444573
0.000188434
-7.27843e-05
-0.000333891
-0.000588251
-0.000832689
0.00127551
0.00109564
0.000896355
0.000678263
0.000445493
0.000200567
-5.03704e-05
-0.000301941
-0.000547639
-0.000783737
0.00125485
0.00107711
0.000883367
0.000673188
0.000449259
0.000213353
-2.89621e-05
-0.000273059
-0.000513056
-0.000743447
0.00125236
0.00107662
0.000885179
0.000677982
0.000457438
0.000225333
-1.31211e-05
-0.000254029
-0.00049172
-0.000722151
-0.00624003
-0.00639306
-0.00665655
-0.00762874
-0.00977411
-0.012288
-0.0130965
-0.0121279
-0.0096975
-0.00650116
-0.00322436
-0.000600844
0.00122383
0.00226942
0.00266115
0.00268591
0.00249732
0.00222796
0.00194761
0.0016873
0.00145718
0.00125755
0.00108466
0.000934745
0.000805175
0.000693594
0.000597713
0.000515294
0.000444147
0.000382354
0.000328164
0.000280212
0.000237226
0.000198314
0.000162582
0.000129471
9.83707e-05
6.88916e-05
4.06613e-05
1.33276e-05
-0.00641701
-0.00643803
-0.00676802
-0.00807963
-0.0107888
-0.0135096
-0.0141945
-0.0130249
-0.0104707
-0.00711434
-0.00367441
-0.000886024
0.00101688
0.00210576
0.00253782
0.00258747
0.00241908
0.0021653
0.00189763
0.00164771
0.00142602
0.00123311
0.00106555
0.000920063
0.000793953
0.000685282
0.000591714
0.000511043
0.000441136
0.000380207
0.000326593
0.000279069
0.000236397
0.000197711
0.000162164
0.000129179
9.81969e-05
6.87955e-05
4.06311e-05
1.33602e-05
-0.00577774
-0.0062319
-0.00710012
-0.00909835
-0.0124889
-0.0154713
-0.0160025
-0.0145305
-0.0118174
-0.00823338
-0.00449629
-0.00146157
0.000591667
0.00176819
0.00226801
0.00236498
0.00223539
0.00201415
0.00177652
0.00155392
0.00135541
0.001181
0.00102778
0.000893247
0.000775559
0.000672689
0.000583001
0.000504942
0.000436838
0.000377144
0.0003243
0.000277341
0.000235121
0.000196789
0.000161554
0.000128826
9.80644e-05
6.88487e-05
4.07631e-05
1.34912e-05
-0.00629973
-0.00651519
-0.00736196
-0.00981008
-0.0138959
-0.0172772
-0.0177439
-0.0161372
-0.0133121
-0.00960299
-0.00556841
-0.00222302
-9.55732e-06
0.00127486
0.00185561
0.00202192
0.00196072
0.00179843
0.00160976
0.00142738
0.00126071
0.00111028
0.000974815
0.000853365
0.000745154
0.000649423
0.000565173
0.000491228
0.000426218
0.000368865
0.000318057
0.000272515
0.000231389
0.00019391
0.000159373
0.000127226
9.69537e-05
6.81107e-05
4.03601e-05
1.33857e-05
-0.0054219
-0.00640907
-0.00771947
-0.0105154
-0.0146919
-0.0182612
-0.0185914
-0.0171321
-0.0146001
-0.01091
-0.0065662
-0.00303804
-0.000621218
0.000751499
0.00137386
0.00158357
0.00158987
0.00150737
0.00139305
0.00126777
0.00114144
0.00101996
0.000906084
0.00080102
0.00070522
0.000618834
0.000541589
0.000472896
0.000411883
0.000357612
0.000309132
0.000265468
0.000225835
0.000189565
0.000156033
0.000124731
9.51725e-05
6.69535e-05
3.97282e-05
1.32049e-05
-0.00581991
-0.00601609
-0.0073986
-0.0102183
-0.014534
-0.0181513
-0.0186048
-0.0172223
-0.014944
-0.0114778
-0.00713592
-0.00359802
-0.00116067
0.000287656
0.000973177
0.00121971
0.00126069
0.00121993
0.00115837
0.00109075
0.00101172
0.000922629
0.000831066
0.00074251
0.000659451
0.000582994
0.00051346
0.000450735
0.000394333
0.000343618
0.000297876
0.000256415
0.000218582
0.000183807
0.000151527
0.000121291
9.26533e-05
6.52548e-05
3.87525e-05
1.28857e-05
-0.00489845
-0.00590628
-0.00707607
-0.0097765
-0.013247
-0.0161563
-0.0167447
-0.0157543
-0.0139286
-0.0109989
-0.00710142
-0.00385326
-0.00162408
-0.00023818
0.000529315
0.000884001
0.000998895
0.000999013
0.000971478
0.000935587
0.000884896
0.000820586
0.000750067
0.000678269
0.000608259
0.000541895
0.000480207
0.000423679
0.000372287
0.0003257
0.000283399
0.000244804
0.000209338
0.000176504
0.00014583
0.000116943
8.94653e-05
6.30871e-05
3.74994e-05
1.24739e-05
-0.00485123
-0.00408062
-0.00686052
-0.00926317
-0.0119395
-0.0142142
-0.014708
-0.0139179
-0.0124769
-0.010025
-0.00668463
-0.00384959
-0.00190696
-0.000683897
6.02896e-05
0.000488836
0.000710045
0.000797099
0.000813256
0.000803463
0.000774019
0.000726975
0.000669911
0.000610746
0.000552741
0.000496875
0.000444212
0.000395017
0.000349421
0.000307303
0.000268415
0.000232498
0.00019922
0.000168269
0.000139257
0.000111845
8.56807e-05
6.04852e-05
3.59843e-05
1.19747e-05
-0.00416398
-0.00505744
-0.00713421
-0.00908871
-0.0109655
-0.0124971
-0.0126256
-0.0118858
-0.0107097
-0.00866036
-0.00594952
-0.00363544
-0.00202214
-0.000944119
-0.000244291
0.000184741
0.000433608
0.000573841
0.000647751
0.000672975
0.000662008
0.000631724
0.000591779
0.000546092
0.000497491
0.000449734
0.000403907
0.000360574
0.000320158
0.000282752
0.000248187
0.000216119
0.000186161
0.000157964
0.000131222
0.000105696
8.11478e-05
5.73792e-05
3.41749e-05
1.13742e-05
-0.00370665
-0.00458725
-0.00614828
-0.00774167
-0.00911172
-0.0102087
-0.0104469
-0.009865
-0.00880759
-0.00711928
-0.00509625
-0.00333248
-0.00203445
-0.00111933
-0.000475264
-5.02684e-05
0.000209231
0.000365229
0.000456122
0.000506611
0.00053072
0.000524378
0.00049965
0.000465925
0.000432261
0.000398229
0.000362288
0.000327521
0.000294121
0.000261973
0.000231209
0.000201959
0.000174236
0.000148004
0.000123083
9.92738e-05
7.63245e-05
5.4035e-05
3.22153e-05
1.07266e-05
-0.00339174
-0.00414306
-0.00533796
-0.00663577
-0.00763744
-0.00833088
-0.00855401
-0.00819819
-0.00734302
-0.00599777
-0.00448713
-0.00313726
-0.00204263
-0.00122434
-0.000645492
-0.000245638
1.78143e-05
0.000186703
0.000289143
0.000335972
0.000353608
0.000371786
0.000390359
0.00039849
0.000384149
0.000354634
0.000322051
0.000290987
0.000261003
0.000233021
0.000206816
0.000182029
0.00015836
0.000135559
0.000113454
9.19407e-05
7.09267e-05
5.03323e-05
3.00537e-05
1.00074e-05
-0.00302772
-0.00367125
-0.00461925
-0.00561246
-0.00633665
-0.00688392
-0.00707932
-0.00681192
-0.00617037
-0.00519099
-0.00402819
-0.00294625
-0.00204797
-0.00135725
-0.000837991
-0.000463561
-0.000199455
2.99313e-06
0.000132632
0.000178889
0.000204513
0.000242475
0.000271214
0.000283583
0.000286171
0.000283289
0.000271984
0.000255147
0.000235086
0.000213084
0.000190492
0.000168089
0.000146229
0.000125097
0.000104673
8.48775e-05
6.55555e-05
4.65811e-05
2.78468e-05
9.27778e-06
-0.00272664
-0.00328909
-0.00403727
-0.00481896
-0.00543448
-0.00584836
-0.00599068
-0.00580156
-0.00528369
-0.00451268
-0.00361128
-0.00275104
-0.00201734
-0.00141722
-0.000937039
-0.000580365
-0.000324965
-0.000128064
2.08798e-05
0.000121697
0.000185623
0.000220081
0.000240577
0.000256942
0.0002573
0.000246332
0.000232021
0.000214626
0.000196848
0.000179362
0.000162191
0.000145184
0.000128212
0.000111165
9.40297e-05
7.68433e-05
5.96692e-05
4.25492e-05
2.54925e-05
8.49367e-06
-0.0024587
-0.00294728
-0.00354337
-0.00417643
-0.00466624
-0.00497769
-0.00509511
-0.00495403
-0.00455787
-0.00398266
-0.0032882
-0.00258417
-0.00196269
-0.00144743
-0.00102434
-0.000687502
-0.000432473
-0.00024614
-0.000112318
-4.19796e-05
-3.30435e-06
5.35136e-05
0.00013115
0.000185899
0.000209794
0.00021157
0.00020374
0.000192064
0.000178599
0.000163966
0.00014855
0.000132731
0.000116777
0.000100909
8.51873e-05
6.96119e-05
5.4116e-05
3.865e-05
2.31924e-05
7.73304e-06
-0.00222943
-0.00265419
-0.00314451
-0.00365471
-0.00406573
-0.00433152
-0.00441762
-0.00430275
-0.00399399
-0.00353748
-0.00299382
-0.00243759
-0.00192327
-0.00147445
-0.00110015
-0.000792987
-0.000548509
-0.000343958
-0.000186099
-0.000100599
-5.62794e-05
-9.51216e-06
4.39754e-05
8.54792e-05
0.000112138
0.000126933
0.00013349
0.000134103
0.000130822
0.000124969
0.000117309
0.000108201
9.78966e-05
8.65406e-05
7.43306e-05
6.14666e-05
4.81639e-05
3.45759e-05
2.08135e-05
6.9409e-06
-0.00202124
-0.00239414
-0.00280139
-0.00322242
-0.00355744
-0.00376978
-0.0038552
-0.00377522
-0.00353008
-0.00316866
-0.00274283
-0.00229262
-0.00185549
-0.00145951
-0.00112181
-0.000846908
-0.000628031
-0.000457024
-0.000319559
-0.000204732
-0.000108727
-2.51129e-05
3.65592e-05
7.76031e-05
0.000102705
0.000116197
0.000121945
0.000122535
0.000119493
0.000113805
0.000106175
9.71892e-05
8.72668e-05
7.67389e-05
6.57631e-05
5.44194e-05
4.27402e-05
3.07639e-05
1.85632e-05
6.19602e-06
-0.00183925
-0.0021679
-0.00251788
-0.00286728
-0.00315255
-0.00334088
-0.00340882
-0.00334577
-0.00316277
-0.00288127
-0.00253138
-0.0021561
-0.00179466
-0.00146812
-0.00117595
-0.000916687
-0.00069742
-0.000515794
-0.000376569
-0.00026788
-0.000188203
-0.000125584
-7.04527e-05
-2.4889e-05
9.90808e-06
3.53673e-05
5.33193e-05
6.52581e-05
7.24479e-05
7.5843e-05
7.61848e-05
7.39513e-05
6.95651e-05
6.33389e-05
5.56369e-05
4.67978e-05
3.71522e-05
2.69309e-05
1.63235e-05
5.45105e-06
-0.001676
-0.0019704
-0.00227169
-0.0025691
-0.00281081
-0.0029703
-0.00304069
-0.00299988
-0.00285186
-0.00262676
-0.00235025
-0.00204433
-0.00173592
-0.00144331
-0.00117778
-0.000947071
-0.000751852
-0.000595898
-0.000458687
-0.00033915
-0.000237991
-0.000153876
-8.66922e-05
-3.56168e-05
1.51322e-06
2.76446e-05
4.54385e-05
5.68894e-05
6.34419e-05
6.61944e-05
6.60078e-05
6.35924e-05
5.94805e-05
5.40774e-05
4.76187e-05
4.02628e-05
3.21547e-05
2.34303e-05
1.42595e-05
4.76724e-06
-0.00153333
-0.00179936
-0.00206566
-0.00232299
-0.00253365
-0.0026767
-0.00274044
-0.00271385
-0.00260176
-0.00242276
-0.00219614
-0.00194028
-0.00167802
-0.00143021
-0.00120333
-0.000992275
-0.000803627
-0.000640749
-0.000503963
-0.000390469
-0.000298683
-0.000225
-0.000162999
-0.000111445
-6.97928e-05
-3.66868e-05
-1.07305e-05
9.18777e-06
2.39783e-05
3.43489e-05
4.09409e-05
4.42284e-05
4.47066e-05
4.27938e-05
3.89744e-05
3.36796e-05
2.72928e-05
2.00843e-05
1.23027e-05
4.11753e-06
-0.00140721
-0.00165136
-0.00188897
-0.00211521
-0.00230053
-0.00242808
-0.00249144
-0.00247943
-0.00239262
-0.00224859
-0.00206342
-0.0018513
-0.00163009
-0.00141236
-0.00120341
-0.00100976
-0.000837817
-0.000690984
-0.00056308
-0.000448022
-0.000348429
-0.000262118
-0.000189812
-0.000131134
-8.46699e-05
-4.86063e-05
-2.11329e-05
-6.69886e-07
1.40977e-05
2.42505e-05
3.06909e-05
3.41701e-05
3.52728e-05
3.44239e-05
3.19315e-05
2.80452e-05
2.30291e-05
1.71137e-05
1.05568e-05
3.53938e-06
-0.00129782
-0.00152496
-0.00174125
-0.00194379
-0.00211074
-0.00222732
-0.00228873
-0.00228654
-0.00222051
-0.0021055
-0.00195465
-0.00177662
-0.0015846
-0.00139386
-0.00121293
-0.00104079
-0.000878745
-0.000732564
-0.000602174
-0.000488708
-0.000391178
-0.000309378
-0.00024067
-0.000182731
-0.00013431
-9.42942e-05
-6.16167e-05
-3.53573e-05
-1.47019e-05
9.9809e-07
1.23713e-05
1.9922e-05
2.4219e-05
2.57853e-05
2.51772e-05
2.28402e-05
1.91661e-05
1.44531e-05
9.00295e-06
3.02515e-06
-0.00120295
-0.0014173
-0.00161706
-0.00180083
-0.00195264
-0.00206053
-0.00212068
-0.00212732
-0.00207938
-0.00198734
-0.00186164
-0.00171148
-0.00154866
-0.00138318
-0.00121859
-0.00105706
-0.000905232
-0.000767504
-0.000644569
-0.000533983
-0.000434573
-0.000347163
-0.00027117
-0.000206815
-0.000153378
-0.00010974
-7.46908e-05
-4.7017e-05
-2.55676e-05
-9.3295e-06
2.58457e-06
1.09115e-05
1.6246e-05
1.90307e-05
1.96697e-05
1.85131e-05
1.59268e-05
1.22162e-05
7.69709e-06
2.59465e-06
-0.00112229
-0.00132707
-0.00151487
-0.00168477
-0.00182483
-0.00192566
-0.0019849
-0.00199808
-0.00196351
-0.00188992
-0.00178704
-0.00166121
-0.00152012
-0.00137292
-0.00122536
-0.00108002
-0.000939055
-0.000805745
-0.00068246
-0.000569498
-0.000468477
-0.000380102
-0.000304108
-0.000239466
-0.000184633
-0.000138559
-0.000100293
-6.89767e-05
-4.37928e-05
-2.40706e-05
-9.13342e-06
1.61642e-06
8.84688e-06
1.31303e-05
1.50103e-05
1.49199e-05
1.32736e-05
1.04065e-05
6.64967e-06
2.25015e-06
-0.00105482
-0.00125282
-0.00143172
-0.00159053
-0.00172118
-0.00181677
-0.00187503
-0.00189284
-0.00186989
-0.00181274
-0.00172791
-0.00162052
-0.00149865
-0.00137004
-0.0012377
-0.00110248
-0.000967677
-0.000838017
-0.000716474
-0.00060453
-0.000502822
-0.000411811
-0.000331943
-0.000262636
-0.000203352
-0.00015371
-0.000112809
-7.96374e-05
-5.31469e-05
-3.23872e-05
-1.64935e-05
-4.73511e-06
3.51601e-06
8.77615e-06
1.15492e-05
1.22564e-05
1.13269e-05
9.10229e-06
5.91944e-06
2.02929e-06
-0.0010004
-0.00119453
-0.00136797
-0.00151853
-0.00164124
-0.00173201
-0.00178902
-0.00181042
-0.00179644
-0.00175177
-0.00168223
-0.00159255
-0.00148812
-0.00137357
-0.00125199
-0.00112559
-0.000997256
-0.000870723
-0.000749282
-0.000635219
-0.000530389
-0.000436238
-0.000353523
-0.000281941
-0.000220977
-0.000169591
-0.000126715
-9.14787e-05
-6.29637e-05
-4.03864e-05
-2.29386e-05
-9.92915e-06
-6.50539e-07
5.459e-06
8.97468e-06
1.03392e-05
9.96101e-06
8.22106e-06
5.43345e-06
1.88445e-06
-0.000956535
-0.00114885
-0.00131994
-0.00146591
-0.00158318
-0.00167006
-0.00172527
-0.00174862
-0.00174169
-0.00170743
-0.00164998
-0.00157461
-0.00148555
-0.00138517
-0.0012747
-0.00115559
-0.00103067
-0.000904029
-0.000780067
-0.000662609
-0.000554341
-0.00045681
-0.000370784
-0.000296129
-0.000232284
-0.000178442
-0.00013367
-9.7026e-05
-6.74458e-05
-4.40386e-05
-2.58932e-05
-1.22851e-05
-2.47788e-06
4.08024e-06
7.99158e-06
9.67894e-06
9.58874e-06
8.08381e-06
5.44325e-06
1.99035e-06
-0.000937566
-0.00112996
-0.00129826
-0.00144046
-0.00155478
-0.00163962
-0.00169371
-0.00171775
-0.00171373
-0.00168394
-0.0016322
-0.0015634
-0.00148098
-0.00138642
-0.00128064
-0.00116527
-0.00104301
-0.000917719
-0.000793873
-0.000675574
-0.00056593
-0.000466825
-0.000379182
-0.000303059
-0.000237995
-0.000183173
-0.000137587
-0.000100225
-7.00342e-05
-4.6112e-05
-2.75434e-05
-1.35905e-05
-3.4949e-06
3.29494e-06
7.41141e-06
9.25409e-06
9.31226e-06
7.9109e-06
5.36326e-06
1.99471e-06
)
;

boundaryField
{
    inlet
    {
        type            zeroGradient;
    }
    outlet
    {
        type            fixedValue;
        value           uniform 0;
    }
    lowerWall
    {
        type            zeroGradient;
    }
    upperWall
    {
        type            zeroGradient;
    }
    defaultFaces
    {
        type            empty;
    }
}


// ************************************************************************* //
