/*--------------------------------*- C++ -*----------------------------------*\
| =========                 |                                                 |
| \\      /  F ield         | OpenFOAM: The Open Source CFD Toolbox           |
|  \\    /   O peration     | Version:  2112                                  |
|   \\  /    A nd           | Website:  www.openfoam.com                      |
|    \\/     M anipulation  |                                                 |
\*---------------------------------------------------------------------------*/
FoamFile
{
    version     2.0;
    format      ascii;
    arch        "LSB;label=32;scalar=64";
    class       surfaceScalarField;
    location    "0.21";
    object      phi;
}
// * * * * * * * * * * * * * * * * * * * * * * * * * * * * * * * * * * * * * //

dimensions      [0 3 -1 0 0 0 0];

oriented        oriented;

internalField   nonuniform List<scalar> 
3653
(
9.92697e-07
7.30331e-09
9.79177e-07
1.35193e-08
9.6413e-07
1.50474e-08
9.48543e-07
1.5587e-08
9.32028e-07
1.65153e-08
9.15406e-07
1.6622e-08
8.98306e-07
1.70995e-08
8.80668e-07
1.76381e-08
8.61642e-07
1.90261e-08
8.43882e-07
1.77605e-08
8.25257e-07
1.86246e-08
8.08571e-07
1.66861e-08
7.88945e-07
1.96259e-08
7.71548e-07
1.7397e-08
7.4987e-07
2.16778e-08
7.31844e-07
1.80265e-08
7.11562e-07
2.02818e-08
6.96887e-07
1.46747e-08
6.81051e-07
1.58361e-08
6.69826e-07
1.12248e-08
6.55621e-07
1.42055e-08
6.44159e-07
1.14614e-08
6.28098e-07
1.60616e-08
6.09632e-07
1.84657e-08
5.90174e-07
1.94577e-08
5.56308e-07
3.38666e-08
5.27054e-07
2.92538e-08
4.72528e-07
5.45264e-08
4.10564e-07
6.19635e-08
9.03001e-08
3.20264e-07
1.00296e-06
4.34752e-09
1.00646e-06
1.00196e-08
1.00887e-06
1.26376e-08
1.01036e-06
1.40921e-08
1.01134e-06
1.55384e-08
1.01176e-06
1.61982e-08
1.01183e-06
1.70332e-08
1.01159e-06
1.78786e-08
1.01068e-06
1.99306e-08
1.00912e-06
1.93249e-08
1.00653e-06
2.12084e-08
1.00428e-06
1.89445e-08
1.00056e-06
2.33424e-08
9.98536e-07
1.94202e-08
9.93757e-07
2.6457e-08
9.90753e-07
2.103e-08
9.84242e-07
2.67929e-08
9.7835e-07
2.05668e-08
9.71071e-07
2.31156e-08
9.62465e-07
1.98308e-08
9.52637e-07
2.40335e-08
9.44054e-07
2.00444e-08
9.25877e-07
3.42385e-08
9.1972e-07
2.46227e-08
8.88574e-07
5.06036e-08
8.80117e-07
4.23232e-08
8.38023e-07
7.13484e-08
8.13382e-07
7.91666e-08
7.6039e-07
1.14956e-07
1.40165e-07
7.10525e-07
1.00177e-06
2.57552e-09
1.00488e-06
6.91522e-09
1.00771e-06
9.80742e-09
1.01005e-06
1.17496e-08
1.01215e-06
1.34389e-08
1.01399e-06
1.43595e-08
1.01569e-06
1.5328e-08
1.0174e-06
1.61697e-08
1.01918e-06
1.8154e-08
1.02041e-06
1.80901e-08
1.0213e-06
2.03247e-08
1.02176e-06
1.84815e-08
1.02191e-06
2.31935e-08
1.02251e-06
1.88181e-08
1.02203e-06
2.69333e-08
1.02308e-06
1.99832e-08
1.02023e-06
2.96412e-08
1.01913e-06
2.16678e-08
1.01267e-06
2.95757e-08
1.00755e-06
2.49521e-08
9.99283e-07
3.23006e-08
9.89586e-07
2.97413e-08
9.80362e-07
4.34625e-08
9.6668e-07
3.83048e-08
9.55189e-07
6.20947e-08
9.36763e-07
6.07491e-08
9.23072e-07
8.50398e-08
8.97509e-07
1.0473e-07
8.80735e-07
1.3173e-07
1.53203e-07
8.67697e-07
1.00082e-06
1.75806e-09
1.00257e-06
5.15977e-09
1.00458e-06
7.80331e-09
1.00657e-06
9.75441e-09
1.00848e-06
1.15268e-08
1.01018e-06
1.26596e-08
1.01176e-06
1.37523e-08
1.01346e-06
1.44685e-08
1.0153e-06
1.6319e-08
1.01678e-06
1.66064e-08
1.01805e-06
1.90593e-08
1.01871e-06
1.78191e-08
1.01987e-06
2.20336e-08
1.02016e-06
1.85266e-08
1.02149e-06
2.55979e-08
1.02117e-06
2.03088e-08
1.02125e-06
2.95596e-08
1.01886e-06
2.4055e-08
1.01558e-06
3.28614e-08
1.01121e-06
2.93165e-08
1.00453e-06
3.89861e-08
9.98692e-07
3.55772e-08
9.89677e-07
5.24776e-08
9.81882e-07
4.60996e-08
9.7155e-07
7.24262e-08
9.6221e-07
7.0089e-08
9.4861e-07
9.86397e-08
9.42225e-07
1.11115e-07
9.27311e-07
1.46643e-07
1.59871e-07
9.20643e-07
1.0004e-06
1.35761e-09
1.00157e-06
3.99115e-09
1.00314e-06
6.23118e-09
1.00485e-06
8.04702e-09
1.00662e-06
9.75222e-09
1.00824e-06
1.10451e-08
1.0098e-06
1.21855e-08
1.0113e-06
1.29718e-08
1.01307e-06
1.45463e-08
1.01444e-06
1.52409e-08
1.01599e-06
1.75081e-08
1.0167e-06
1.71101e-08
1.01812e-06
2.06122e-08
1.01816e-06
1.84833e-08
1.01966e-06
2.41016e-08
1.01877e-06
2.12042e-08
1.01991e-06
2.84099e-08
1.01704e-06
2.69259e-08
1.017e-06
3.29063e-08
1.01153e-06
3.47815e-08
1.01003e-06
4.04922e-08
1.00271e-06
4.28948e-08
9.99142e-07
5.60461e-08
9.91938e-07
5.33034e-08
9.85381e-07
7.8983e-08
9.79363e-07
7.61074e-08
9.72113e-07
1.05889e-07
9.67186e-07
1.16043e-07
9.65653e-07
1.48177e-07
1.61777e-07
9.63747e-07
1.00032e-06
1.03996e-09
1.00117e-06
3.13875e-09
1.00238e-06
5.01906e-09
1.0038e-06
6.6282e-09
1.00539e-06
8.16772e-09
1.00692e-06
9.50649e-09
1.00845e-06
1.0655e-08
1.00989e-06
1.15414e-08
1.01157e-06
1.28594e-08
1.01293e-06
1.388e-08
1.01457e-06
1.587e-08
1.01539e-06
1.62905e-08
1.01696e-06
1.90418e-08
1.01714e-06
1.83075e-08
1.01864e-06
2.25955e-08
1.0182e-06
2.16516e-08
1.01908e-06
2.753e-08
1.01797e-06
2.8035e-08
1.01706e-06
3.38161e-08
1.01522e-06
3.66169e-08
1.01271e-06
4.30077e-08
1.0092e-06
4.63972e-08
1.00697e-06
5.82843e-08
1.00103e-06
5.92376e-08
9.99763e-07
8.02514e-08
9.94382e-07
8.14881e-08
9.92637e-07
1.07634e-07
9.91728e-07
1.16951e-07
9.93496e-07
1.46409e-07
1.60231e-07
9.95042e-07
1.00022e-06
8.15706e-10
1.00088e-06
2.48481e-09
1.00187e-06
4.0298e-09
1.0031e-06
5.39979e-09
1.00455e-06
6.71736e-09
1.00603e-06
8.02501e-09
1.00757e-06
9.11377e-09
1.009e-06
1.01063e-08
1.01068e-06
1.1182e-08
1.0121e-06
1.24652e-08
1.01383e-06
1.41329e-08
1.01484e-06
1.52876e-08
1.01655e-06
1.73281e-08
1.0169e-06
1.79563e-08
1.01874e-06
2.0753e-08
1.01829e-06
2.21063e-08
1.02013e-06
2.5684e-08
1.01884e-06
2.9328e-08
1.02003e-06
3.26281e-08
1.0181e-06
3.85516e-08
1.01797e-06
4.31378e-08
1.01586e-06
4.84999e-08
1.01466e-06
5.94854e-08
1.01265e-06
6.12498e-08
1.01186e-06
8.10366e-08
1.01012e-06
8.32273e-08
1.01178e-06
1.05978e-07
1.01251e-06
1.16224e-07
1.01799e-06
1.40922e-07
1.53854e-07
1.02437e-06
1.00019e-06
6.2586e-10
1.00075e-06
1.92887e-09
1.00163e-06
3.14126e-09
1.00276e-06
4.27059e-09
1.00413e-06
5.35376e-09
1.00558e-06
6.57066e-09
1.00714e-06
7.55732e-09
1.00863e-06
8.61598e-09
1.01032e-06
9.49019e-09
1.01185e-06
1.09401e-08
1.01366e-06
1.23215e-08
1.01493e-06
1.40176e-08
1.01669e-06
1.55622e-08
1.01752e-06
1.71335e-08
1.01925e-06
1.90213e-08
1.01972e-06
2.16291e-08
1.02125e-06
2.41588e-08
1.02159e-06
2.89885e-08
1.02244e-06
3.1778e-08
1.02255e-06
3.84431e-08
1.023e-06
4.26834e-08
1.02221e-06
4.9291e-08
1.02356e-06
5.81315e-08
1.02195e-06
6.28634e-08
1.02458e-06
7.84063e-08
1.02461e-06
8.31989e-08
1.02828e-06
1.02306e-07
1.03183e-06
1.12674e-07
1.03968e-06
1.33077e-07
1.46823e-07
1.04671e-06
1.00018e-06
4.49832e-10
1.00069e-06
1.41341e-09
1.00152e-06
2.31465e-09
1.0026e-06
3.18407e-09
1.00394e-06
4.02328e-09
1.0054e-06
5.10805e-09
1.00699e-06
5.96679e-09
1.00857e-06
7.03877e-09
1.01031e-06
7.74374e-09
1.01197e-06
9.27765e-09
1.01388e-06
1.0412e-08
1.01541e-06
1.24954e-08
1.01733e-06
1.36387e-08
1.01849e-06
1.597e-08
1.0205e-06
1.70168e-08
1.02138e-06
2.07476e-08
1.02342e-06
2.21197e-08
1.0243e-06
2.81059e-08
1.02596e-06
3.01231e-08
1.02708e-06
3.73178e-08
1.02823e-06
4.15384e-08
1.0295e-06
4.8015e-08
1.03111e-06
5.65226e-08
1.03225e-06
6.17244e-08
1.03576e-06
7.48986e-08
1.03758e-06
8.13809e-08
1.0435e-06
9.63782e-08
1.04875e-06
1.07424e-07
1.05759e-06
1.24239e-07
1.36766e-07
1.06765e-06
1.00017e-06
2.77154e-10
1.00068e-06
9.0576e-10
1.0015e-06
1.4937e-09
1.00259e-06
2.09285e-09
1.00394e-06
2.68022e-09
1.00545e-06
3.59757e-09
1.0071e-06
4.31511e-09
1.00879e-06
5.3498e-09
1.01062e-06
5.91492e-09
1.01245e-06
7.44123e-09
1.01448e-06
8.38715e-09
1.0163e-06
1.06687e-08
1.01835e-06
1.15896e-08
1.01999e-06
1.43365e-08
1.02207e-06
1.49354e-08
1.02366e-06
1.91579e-08
1.0258e-06
1.99795e-08
1.0276e-06
2.63013e-08
1.02968e-06
2.80444e-08
1.03167e-06
3.53297e-08
1.03399e-06
3.92132e-08
1.03584e-06
4.61681e-08
1.03922e-06
5.31444e-08
1.04128e-06
5.96617e-08
1.04611e-06
7.00705e-08
1.04989e-06
7.76018e-08
1.05664e-06
8.96243e-08
1.06342e-06
1.00643e-07
1.0737e-06
1.13968e-07
1.26173e-07
1.08429e-06
1.00018e-06
9.76928e-11
1.00071e-06
3.75332e-10
1.00156e-06
6.3926e-10
1.00271e-06
9.51184e-10
1.00411e-06
1.27862e-09
1.00571e-06
1.99843e-09
1.00745e-06
2.57208e-09
1.00927e-06
3.5289e-09
1.01121e-06
3.97333e-09
1.01324e-06
5.4159e-09
1.01541e-06
6.21364e-09
1.01752e-06
8.56169e-09
1.01975e-06
9.35411e-09
1.02177e-06
1.23174e-08
1.02407e-06
1.2634e-08
1.02618e-06
1.70558e-08
1.02861e-06
1.75429e-08
1.03109e-06
2.38196e-08
1.0336e-06
2.55398e-08
1.03652e-06
3.24132e-08
1.03935e-06
3.63811e-08
1.0425e-06
4.30201e-08
1.04638e-06
4.92637e-08
1.04992e-06
5.6121e-08
1.05553e-06
6.44535e-08
1.06058e-06
7.25511e-08
1.06817e-06
8.20387e-08
1.07644e-06
9.23742e-08
1.08689e-06
1.03517e-07
1.14161e-07
1.0989e-06
1.0002e-06
-9.73454e-11
1.00078e-06
-2.05584e-10
1.0017e-06
-2.84501e-10
1.00293e-06
-2.75087e-10
1.00443e-06
-2.21503e-10
1.00615e-06
2.77628e-10
1.00801e-06
7.13817e-10
1.00997e-06
1.56361e-09
1.01205e-06
1.89215e-09
1.01428e-06
3.18571e-09
1.01663e-06
3.86868e-09
1.01902e-06
6.16596e-09
1.02145e-06
6.92216e-09
1.02387e-06
9.90444e-09
1.02637e-06
1.01279e-08
1.02898e-06
1.44521e-08
1.03171e-06
1.48135e-08
1.03475e-06
2.07765e-08
1.03779e-06
2.25003e-08
1.04122e-06
2.89862e-08
1.04486e-06
3.2734e-08
1.04858e-06
3.92989e-08
1.05329e-06
4.4562e-08
1.0578e-06
5.16089e-08
1.06394e-06
5.83106e-08
1.0702e-06
6.62899e-08
1.07833e-06
7.39103e-08
1.08731e-06
8.33974e-08
1.09846e-06
9.23619e-08
1.01902e-07
1.11072e-06
1.00023e-06
-3.2378e-10
1.0009e-06
-8.77707e-10
1.00195e-06
-1.33917e-09
1.00333e-06
-1.65181e-09
1.00498e-06
-1.87528e-09
1.00686e-06
-1.59706e-09
1.00886e-06
-1.2861e-09
1.01098e-06
-5.60671e-10
1.01322e-06
-3.42244e-10
1.01566e-06
7.43926e-10
1.01819e-06
1.34221e-09
1.02085e-06
3.49689e-09
1.0235e-06
4.27691e-09
1.02627e-06
7.13093e-09
1.02901e-06
7.39019e-09
1.03205e-06
1.14123e-08
1.03505e-06
1.18155e-08
1.03857e-06
1.72505e-08
1.04197e-06
1.91067e-08
1.04594e-06
2.50173e-08
1.05e-06
2.86739e-08
1.05441e-06
3.48814e-08
1.05953e-06
3.94439e-08
1.06486e-06
4.62836e-08
1.07144e-06
5.17287e-08
1.07852e-06
5.92145e-08
1.08698e-06
6.54498e-08
1.09671e-06
7.36588e-08
1.10794e-06
8.11371e-08
8.91794e-08
1.12066e-06
1.00026e-06
-5.8104e-10
1.00104e-06
-1.66149e-09
1.00225e-06
-2.55211e-09
1.00381e-06
-3.20773e-09
1.00565e-06
-3.71182e-09
1.0077e-06
-3.65045e-09
1.00985e-06
-3.43408e-09
1.01216e-06
-2.86991e-09
1.01461e-06
-2.79178e-09
1.01729e-06
-1.93672e-09
1.02003e-06
-1.39605e-09
1.02296e-06
5.57923e-10
1.02586e-06
1.37829e-09
1.02896e-06
4.02975e-09
1.032e-06
4.35431e-09
1.03544e-06
7.97512e-09
1.03879e-06
8.46012e-09
1.04269e-06
1.33549e-08
1.04647e-06
1.53203e-08
1.05076e-06
2.07362e-08
1.05519e-06
2.42351e-08
1.06001e-06
3.00631e-08
1.06543e-06
3.40276e-08
1.0713e-06
4.04163e-08
1.07813e-06
4.48994e-08
1.08573e-06
5.16121e-08
1.09451e-06
5.66676e-08
1.10447e-06
6.37011e-08
1.11594e-06
6.96686e-08
7.64812e-08
1.12863e-06
1.00037e-06
-9.55849e-10
1.00141e-06
-2.69371e-09
1.00291e-06
-4.0503e-09
1.00474e-06
-5.03953e-09
1.00682e-06
-5.79978e-09
1.00908e-06
-5.90427e-09
1.01139e-06
-5.74825e-09
1.0139e-06
-5.37354e-09
1.01658e-06
-5.47079e-09
1.01947e-06
-4.83609e-09
1.02239e-06
-4.31407e-09
1.02553e-06
-2.57457e-09
1.02867e-06
-1.76296e-09
1.0321e-06
5.94838e-10
1.03544e-06
1.01585e-09
1.03925e-06
4.16436e-09
1.04285e-06
4.85811e-09
1.04697e-06
9.23537e-09
1.05091e-06
1.13867e-08
1.05533e-06
1.63119e-08
1.05989e-06
1.9677e-08
1.06495e-06
2.49994e-08
1.07052e-06
2.84624e-08
1.07674e-06
3.41921e-08
1.08375e-06
3.78904e-08
1.09173e-06
4.36304e-08
1.10065e-06
4.77505e-08
1.11086e-06
5.34858e-08
1.1223e-06
5.82372e-08
6.37364e-08
1.13504e-06
1.00046e-06
-1.41679e-09
1.00184e-06
-4.07392e-09
1.00375e-06
-5.96107e-09
1.00594e-06
-7.23039e-09
1.00831e-06
-8.16405e-09
1.01076e-06
-8.3529e-09
1.01325e-06
-8.24028e-09
1.01599e-06
-8.11815e-09
1.01894e-06
-8.41605e-09
1.02208e-06
-7.97541e-09
1.02518e-06
-7.42021e-09
1.02854e-06
-5.93566e-09
1.03193e-06
-5.14527e-09
1.0357e-06
-3.17434e-09
1.0394e-06
-2.68873e-09
1.04365e-06
-8.68587e-11
1.0477e-06
8.05788e-10
1.05209e-06
4.8499e-09
1.05623e-06
7.24513e-09
1.06066e-06
1.18816e-08
1.06518e-06
1.51591e-08
1.07019e-06
1.99892e-08
1.07564e-06
2.30082e-08
1.08189e-06
2.79468e-08
1.08887e-06
3.09073e-08
1.09691e-06
3.55946e-08
1.10587e-06
3.87854e-08
1.11606e-06
4.33014e-08
1.12744e-06
4.68584e-08
5.11683e-08
1.14e-06
1.00089e-06
-2.30389e-09
1.00287e-06
-6.05907e-09
1.00526e-06
-8.35378e-09
1.0078e-06
-9.76664e-09
1.01041e-06
-1.07728e-08
1.01302e-06
-1.09665e-08
1.0157e-06
-1.09217e-08
1.01875e-06
-1.11627e-08
1.02204e-06
-1.17048e-08
1.02541e-06
-1.13466e-08
1.02862e-06
-1.06306e-08
1.0321e-06
-9.41979e-09
1.03574e-06
-8.78012e-09
1.03996e-06
-7.39588e-09
1.04428e-06
-7.00962e-09
1.04902e-06
-4.82254e-09
1.05333e-06
-3.50268e-09
1.05757e-06
6.06049e-10
1.06132e-06
3.49094e-09
1.06527e-06
7.93328e-09
1.06933e-06
1.11007e-08
1.07406e-06
1.5264e-08
1.07929e-06
1.77687e-08
1.08553e-06
2.17105e-08
1.09253e-06
2.39127e-08
1.10067e-06
2.74513e-08
1.10967e-06
2.97879e-08
1.11988e-06
3.30906e-08
1.13115e-06
3.55893e-08
3.86506e-08
1.14366e-06
1.00186e-06
-4.1622e-09
1.00523e-06
-9.42919e-09
1.00849e-06
-1.16192e-08
1.01143e-06
-1.27061e-08
1.01429e-06
-1.36321e-08
1.01715e-06
-1.38281e-08
1.02007e-06
-1.38356e-08
1.0233e-06
-1.43899e-08
1.02667e-06
-1.50829e-08
1.03002e-06
-1.46892e-08
1.03316e-06
-1.37717e-08
1.03651e-06
-1.27749e-08
1.03994e-06
-1.22128e-08
1.04401e-06
-1.14656e-08
1.04834e-06
-1.13334e-08
1.05333e-06
-9.81329e-09
1.05781e-06
-7.98428e-09
1.06222e-06
-3.79924e-09
1.06595e-06
-2.4306e-10
1.06965e-06
4.23769e-09
1.07326e-06
7.48597e-09
1.0776e-06
1.09275e-08
1.08241e-06
1.29585e-08
1.08838e-06
1.57364e-08
1.09518e-06
1.7118e-08
1.10322e-06
1.94124e-08
1.11218e-06
2.08277e-08
1.12237e-06
2.28972e-08
1.13354e-06
2.44165e-08
2.64151e-08
1.14578e-06
1.00304e-06
-7.19982e-09
1.00682e-06
-1.32136e-08
1.00971e-06
-1.45082e-08
1.01188e-06
-1.48755e-08
1.01372e-06
-1.5473e-08
1.01531e-06
-1.54192e-08
1.0168e-06
-1.53256e-08
1.01829e-06
-1.58767e-08
1.01945e-06
-1.62453e-08
1.02021e-06
-1.54523e-08
1.02081e-06
-1.43664e-08
1.02164e-06
-1.36097e-08
1.02274e-06
-1.33051e-08
1.02441e-06
-1.31419e-08
1.02626e-06
-1.31773e-08
1.02853e-06
-1.209e-08
1.03051e-06
-9.9647e-09
1.03308e-06
-6.36142e-09
1.03582e-06
-2.98813e-09
1.03968e-06
3.7781e-10
1.04425e-06
2.91281e-09
1.05007e-06
5.10852e-09
1.05649e-06
6.53693e-09
1.06421e-06
8.0221e-09
1.07255e-06
8.77659e-09
1.08203e-06
9.93311e-09
1.09225e-06
1.06051e-08
1.10359e-06
1.15631e-08
1.11584e-06
1.21635e-08
1.29215e-08
1.12933e-06
9.928e-07
9.79587e-07
9.65078e-07
9.50203e-07
9.3473e-07
9.19311e-07
9.03985e-07
8.88108e-07
8.71863e-07
8.56411e-07
8.42044e-07
8.28435e-07
8.1513e-07
8.01988e-07
7.8881e-07
7.7672e-07
7.66756e-07
7.60394e-07
7.57406e-07
7.57784e-07
7.60697e-07
7.65805e-07
7.72342e-07
7.80364e-07
7.89141e-07
7.99074e-07
8.09679e-07
8.21242e-07
8.33406e-07
8.46327e-07
4.1151e-07
-9.12455e-08
4.77222e-07
-6.57123e-08
5.53932e-07
-7.67104e-08
6.4883e-07
-9.48978e-08
6.84846e-07
-3.6016e-08
6.73926e-07
1.09204e-08
6.71258e-07
2.66713e-09
7.72748e-07
-1.01489e-07
8.67876e-07
-9.51283e-08
-8.72745e-08
9.55151e-07
7.60901e-07
-1.41621e-07
8.24525e-07
-1.29337e-07
8.43224e-07
-9.54097e-08
8.45384e-07
-9.70576e-08
8.92369e-07
-8.30004e-08
9.45196e-07
-4.1907e-08
9.34072e-07
1.37914e-08
9.36507e-07
-1.03924e-07
1.03453e-06
-1.93152e-07
-1.63315e-07
1.11057e-06
8.6196e-07
-1.35884e-07
8.86181e-07
-1.53558e-07
9.03159e-07
-1.12388e-07
8.93987e-07
-8.7885e-08
8.9314e-07
-8.21535e-08
9.69322e-07
-1.18089e-07
1.01464e-06
-3.15245e-08
1.03073e-06
-1.20021e-07
1.01673e-06
-1.79148e-07
-2.15616e-07
1.06903e-06
9.34008e-07
-1.4925e-07
9.32412e-07
-1.51962e-07
9.3668e-07
-1.16655e-07
9.59245e-07
-1.10451e-07
9.67819e-07
-9.07274e-08
9.75536e-07
-1.25805e-07
1.01824e-06
-7.42254e-08
1.03772e-06
-1.39507e-07
1.04344e-06
-1.84862e-07
-2.2627e-07
1.05409e-06
9.61989e-07
-1.47491e-07
9.65292e-07
-1.55265e-07
9.65557e-07
-1.16921e-07
9.7827e-07
-1.23164e-07
9.86589e-07
-9.9046e-08
9.99677e-07
-1.38893e-07
1.02877e-06
-1.0332e-07
1.04175e-06
-1.52486e-07
1.04163e-06
-1.84736e-07
-2.41791e-07
1.05715e-06
9.96541e-07
-1.4899e-07
9.92538e-07
-1.51262e-07
9.96405e-07
-1.20788e-07
1.00359e-06
-1.3035e-07
1.01642e-06
-1.11874e-07
1.01681e-06
-1.39286e-07
1.0356e-06
-1.22105e-07
1.04638e-06
-1.63266e-07
1.05223e-06
-1.90591e-07
-2.35802e-07
1.04624e-06
1.02028e-06
-1.44902e-07
1.01696e-06
-1.47941e-07
1.01886e-06
-1.22683e-07
1.02128e-06
-1.32771e-07
1.02781e-06
-1.18408e-07
1.02988e-06
-1.4136e-07
1.041e-06
-1.33224e-07
1.04584e-06
-1.68107e-07
1.04503e-06
-1.89773e-07
-2.33811e-07
1.04304e-06
1.04349e-06
-1.41683e-07
1.03758e-06
-1.42029e-07
1.03846e-06
-1.23565e-07
1.03771e-06
-1.32018e-07
1.04162e-06
-1.22317e-07
1.04045e-06
-1.40193e-07
1.04695e-06
-1.39722e-07
1.04801e-06
-1.69166e-07
1.04431e-06
-1.86072e-07
-2.25893e-07
1.03639e-06
1.06151e-06
-1.35546e-07
1.0549e-06
-1.35417e-07
1.05285e-06
-1.21517e-07
1.04977e-06
-1.28936e-07
1.05075e-06
-1.23304e-07
1.04828e-06
-1.37718e-07
1.04758e-06
-1.39025e-07
1.044e-06
-1.65583e-07
1.03988e-06
-1.81958e-07
-2.16832e-07
1.03082e-06
1.07724e-06
-1.28498e-07
1.06941e-06
-1.27584e-07
1.06582e-06
-1.1793e-07
1.06043e-06
-1.23548e-07
1.05755e-06
-1.20418e-07
1.05262e-06
-1.32787e-07
1.05042e-06
-1.36828e-07
1.04404e-06
-1.59201e-07
1.03508e-06
-1.73002e-07
-2.03861e-07
1.02211e-06
1.09011e-06
-1.19704e-07
1.08125e-06
-1.18726e-07
1.0749e-06
-1.11584e-07
1.06789e-06
-1.16536e-07
1.06295e-06
-1.15477e-07
1.05607e-06
-1.25903e-07
1.04933e-06
-1.30094e-07
1.0401e-06
-1.49971e-07
1.03015e-06
-1.63044e-07
-1.89529e-07
1.01581e-06
1.10077e-06
-1.09753e-07
1.09076e-06
-1.08712e-07
1.08295e-06
-1.03779e-07
1.07417e-06
-1.07757e-07
1.06643e-06
-1.07738e-07
1.05745e-06
-1.16923e-07
1.04924e-06
-1.21876e-07
1.03786e-06
-1.38595e-07
1.02501e-06
-1.50197e-07
-1.72954e-07
1.00844e-06
1.10944e-06
-9.85313e-08
1.0984e-06
-9.76719e-08
1.08867e-06
-9.40514e-08
1.07847e-06
-9.75525e-08
1.06898e-06
-9.82546e-08
1.05839e-06
-1.06328e-07
1.04759e-06
-1.11081e-07
1.0344e-06
-1.25406e-07
1.02013e-06
-1.35923e-07
-1.55189e-07
1.00237e-06
1.11641e-06
-8.63087e-08
1.10433e-06
-8.55852e-08
1.09336e-06
-8.30901e-08
1.08181e-06
-8.60002e-08
1.07062e-06
-8.70673e-08
1.0584e-06
-9.41027e-08
1.04615e-06
-9.88267e-08
1.0315e-06
-1.1076e-07
1.01559e-06
-1.20011e-07
-1.36178e-07
9.96577e-07
1.12188e-06
-7.31484e-08
1.10892e-06
-7.26204e-08
1.09671e-06
-7.08824e-08
1.08406e-06
-7.33515e-08
1.07159e-06
-7.45972e-08
1.05814e-06
-8.06494e-08
1.04432e-06
-8.50132e-08
1.02849e-06
-9.49268e-08
1.01146e-06
-1.02977e-07
-1.16335e-07
9.91612e-07
1.12606e-06
-5.92063e-08
1.11227e-06
-5.88262e-08
1.09915e-06
-5.77666e-08
1.08554e-06
-5.97355e-08
1.07203e-06
-6.10885e-08
1.05747e-06
-6.6093e-08
1.04259e-06
-7.01299e-08
1.0258e-06
-7.81412e-08
1.00781e-06
-8.49899e-08
-9.57448e-08
9.87224e-07
1.12908e-06
-4.46233e-08
1.1146e-06
-4.4348e-08
1.10069e-06
-4.38572e-08
1.08629e-06
-4.53321e-08
1.07194e-06
-4.67355e-08
1.05652e-06
-5.06789e-08
1.04066e-06
-5.42709e-08
1.02302e-06
-6.05021e-08
1.00424e-06
-6.6205e-08
-7.44611e-08
9.82956e-07
1.13038e-06
-2.92242e-08
1.11501e-06
-2.89791e-08
1.10019e-06
-2.90392e-08
1.08488e-06
-3.00235e-08
1.06961e-06
-3.14673e-08
1.05314e-06
-3.42048e-08
1.03615e-06
-3.72794e-08
1.0173e-06
-4.16582e-08
9.97285e-07
-4.6185e-08
-5.18227e-08
9.74646e-07
1.11157e-06
-1.1465e-08
1.09426e-06
-1.16612e-08
1.07734e-06
-1.21226e-08
1.06015e-06
-1.28348e-08
1.04271e-06
-1.40289e-08
1.02413e-06
-1.56184e-08
1.00455e-06
-1.77016e-08
9.83021e-07
-2.01315e-08
9.59818e-07
-2.29817e-08
-2.57882e-08
9.33784e-07
8.34862e-07
8.23201e-07
8.11078e-07
7.98244e-07
7.84215e-07
7.68596e-07
7.50895e-07
7.30763e-07
7.07781e-07
6.81993e-07
3.32306e-09
-3.32306e-09
-6.96742e-08
7.29972e-08
-2.10607e-07
1.40932e-07
-4.51231e-07
2.40625e-07
-7.17302e-07
2.6607e-07
-8.82882e-07
1.6558e-07
-9.1441e-07
3.15277e-08
-8.59697e-07
-5.47124e-08
-7.42648e-07
-1.17049e-07
-5.75002e-07
-1.67647e-07
-3.92398e-07
-1.82603e-07
-2.12164e-07
-1.80235e-07
-4.57941e-08
-1.66369e-07
9.69163e-08
-1.4271e-07
2.12898e-07
-1.15982e-07
3.00599e-07
-8.77008e-08
3.62481e-07
-6.18819e-08
4.02869e-07
-4.03882e-08
4.26752e-07
-2.3883e-08
4.38787e-07
-1.20347e-08
4.4283e-07
-4.04272e-09
4.41825e-07
1.00444e-09
4.37923e-07
3.90221e-09
4.32644e-07
5.27904e-09
4.27008e-07
5.6359e-09
4.21609e-07
5.39863e-09
4.16777e-07
4.83218e-09
4.12604e-07
4.17305e-09
4.09099e-07
3.50555e-09
4.06185e-07
2.91353e-09
4.03791e-07
2.39451e-09
4.01826e-07
1.96437e-09
4.00219e-07
1.60739e-09
3.9892e-07
1.29852e-09
3.97856e-07
1.06424e-09
3.97031e-07
8.24783e-10
3.96352e-07
6.79394e-10
3.9588e-07
4.71906e-10
3.95479e-07
4.00514e-10
1.99478e-10
-9.75083e-09
6.42777e-09
-1.22189e-07
1.85435e-07
-3.48369e-07
3.67112e-07
-5.98116e-07
4.90372e-07
-7.94546e-07
4.625e-07
-8.97175e-07
2.68209e-07
-8.86535e-07
2.08877e-08
-8.04346e-07
-1.36901e-07
-6.71562e-07
-2.49834e-07
-5.0271e-07
-3.36498e-07
-3.11749e-07
-3.73564e-07
-1.30445e-07
-3.61539e-07
3.79157e-08
-3.3473e-07
1.8153e-07
-2.86325e-07
3.00608e-07
-2.3506e-07
3.95584e-07
-1.82677e-07
4.69274e-07
-1.35572e-07
5.25528e-07
-9.66426e-08
5.68155e-07
-6.65092e-08
6.00342e-07
-4.42221e-08
6.24518e-07
-2.8219e-08
6.42423e-07
-1.68999e-08
6.55459e-07
-9.13382e-09
6.64703e-07
-3.96571e-09
6.71028e-07
-6.88634e-10
6.7519e-07
1.23652e-09
6.77858e-07
2.16391e-09
6.79473e-07
2.55865e-09
6.80425e-07
2.55332e-09
6.80941e-07
2.39703e-09
6.81216e-07
2.11952e-09
6.81339e-07
1.84224e-09
6.81392e-07
1.55377e-09
6.81417e-07
1.27383e-09
6.81432e-07
1.04949e-09
6.81472e-07
7.8386e-10
6.81521e-07
6.3082e-10
6.81624e-07
3.6887e-10
6.81737e-07
2.87747e-10
2.36846e-11
-6.74985e-08
7.39263e-08
-2.63682e-07
3.81619e-07
-4.19702e-07
5.23132e-07
-5.38042e-07
6.08712e-07
-6.52574e-07
5.77032e-07
-6.97637e-07
3.13273e-07
-6.73664e-07
-3.0856e-09
-5.94351e-07
-2.16214e-07
-4.76923e-07
-3.67261e-07
-3.25095e-07
-4.88326e-07
-1.52692e-07
-5.45967e-07
2.13777e-08
-5.35609e-07
1.71276e-07
-4.84628e-07
2.94041e-07
-4.09089e-07
3.89572e-07
-3.30591e-07
4.6128e-07
-2.54386e-07
5.14136e-07
-1.88427e-07
5.54817e-07
-1.37324e-07
5.88284e-07
-9.99755e-08
6.1683e-07
-7.27688e-08
6.4121e-07
-5.25983e-08
6.6167e-07
-3.73607e-08
6.78518e-07
-2.59818e-08
6.92043e-07
-1.74906e-08
7.02763e-07
-1.14084e-08
7.11037e-07
-7.03802e-09
7.17341e-07
-4.13961e-09
7.22063e-07
-2.16333e-09
7.25608e-07
-9.91953e-10
7.28249e-07
-2.43405e-10
7.30262e-07
1.066e-10
7.31783e-07
3.20909e-10
7.32983e-07
3.53968e-10
7.33926e-07
3.31028e-10
7.34706e-07
2.69041e-10
7.3535e-07
1.39564e-10
7.35917e-07
6.43064e-11
7.36416e-07
-1.29851e-10
7.36884e-07
-1.81196e-10
-4.32181e-10
-2.87715e-08
1.02698e-07
-9.61326e-08
4.4898e-07
-1.88332e-07
6.15332e-07
-3.12957e-07
7.33337e-07
-3.87987e-07
6.52062e-07
-4.03597e-07
3.28882e-07
-3.87289e-07
-1.93935e-08
-3.42188e-07
-2.61314e-07
-2.6782e-07
-4.4163e-07
-1.46559e-07
-6.09587e-07
2.88526e-09
-6.95411e-07
1.56002e-07
-6.88726e-07
2.96208e-07
-6.24834e-07
4.10277e-07
-5.23158e-07
4.97637e-07
-4.17952e-07
5.60076e-07
-3.16824e-07
5.97542e-07
-2.25894e-07
6.17375e-07
-1.57157e-07
6.30638e-07
-1.13238e-07
6.43968e-07
-8.60992e-08
6.58608e-07
-6.72379e-08
6.73344e-07
-5.20969e-08
6.86888e-07
-3.9526e-08
6.98509e-07
-2.91115e-08
7.08108e-07
-2.1007e-08
7.15793e-07
-1.47239e-08
7.21885e-07
-1.02311e-08
7.26648e-07
-6.92679e-09
7.30391e-07
-4.73411e-09
7.33301e-07
-3.15413e-09
7.35611e-07
-2.20269e-09
7.37427e-07
-1.49506e-09
7.38903e-07
-1.12279e-09
7.40087e-07
-8.52448e-10
7.41083e-07
-7.27251e-10
7.41903e-07
-6.80849e-10
7.42625e-07
-6.56958e-10
7.43249e-07
-7.53795e-10
7.43829e-07
-7.61381e-10
-9.69432e-10
-1.03516e-07
2.06214e-07
-1.21177e-07
4.66641e-07
-1.26143e-07
6.20298e-07
-1.12961e-07
7.20155e-07
-8.72507e-08
6.26352e-07
-4.32892e-08
2.84921e-07
-1.7928e-08
-4.47546e-08
-3.84821e-09
-2.75394e-07
2.69211e-08
-4.72399e-07
9.56265e-08
-6.78293e-07
1.884e-07
-7.88185e-07
2.88749e-07
-7.89075e-07
3.83757e-07
-7.19843e-07
4.63358e-07
-6.02759e-07
5.27123e-07
-4.81717e-07
5.87043e-07
-3.76743e-07
6.37292e-07
-2.76143e-07
6.66067e-07
-1.85932e-07
6.7563e-07
-1.228e-07
6.77535e-07
-8.80047e-08
6.8051e-07
-7.02124e-08
6.86881e-07
-5.84685e-08
6.95443e-07
-4.80877e-08
7.0429e-07
-3.79585e-08
7.12241e-07
-2.89579e-08
7.1882e-07
-2.13034e-08
7.24097e-07
-1.55081e-08
7.28257e-07
-1.10862e-08
7.31573e-07
-8.05006e-09
7.34204e-07
-5.78514e-09
7.36345e-07
-4.34427e-09
7.38066e-07
-3.21538e-09
7.39495e-07
-2.55253e-09
7.40658e-07
-2.01543e-09
7.41651e-07
-1.71974e-09
7.42474e-07
-1.50399e-09
7.43203e-07
-1.38619e-09
7.43832e-07
-1.38271e-09
7.4442e-07
-1.3492e-09
-1.51331e-09
1.05846e-07
1.00368e-07
6.43435e-08
5.08143e-07
1.38093e-07
5.46549e-07
2.15663e-07
6.42584e-07
3.04895e-07
5.3712e-07
3.667e-07
2.23116e-07
3.99499e-07
-7.75531e-08
4.11847e-07
-2.87743e-07
4.24308e-07
-4.84859e-07
4.5746e-07
-7.11445e-07
5.0226e-07
-8.32985e-07
5.29829e-07
-8.16644e-07
5.49249e-07
-7.39263e-07
5.65793e-07
-6.19303e-07
5.65933e-07
-4.81856e-07
5.70327e-07
-3.81137e-07
6.00586e-07
-3.06403e-07
6.4428e-07
-2.29627e-07
6.78952e-07
-1.57472e-07
6.96374e-07
-1.05426e-07
7.01959e-07
-7.57978e-08
7.03923e-07
-6.04325e-08
7.06852e-07
-5.10168e-08
7.11439e-07
-4.2545e-08
7.16789e-07
-3.43082e-08
7.21904e-07
-2.64184e-08
7.26317e-07
-1.99213e-08
7.29904e-07
-1.46724e-08
7.32795e-07
-1.09413e-08
7.351e-07
-8.09065e-09
7.36992e-07
-6.23595e-09
7.38527e-07
-4.7503e-09
7.39821e-07
-3.84704e-09
7.40888e-07
-3.08195e-09
7.4181e-07
-2.64158e-09
7.42582e-07
-2.27584e-09
7.43271e-07
-2.07582e-09
7.43869e-07
-1.98083e-09
7.44431e-07
-1.91085e-09
-2.0321e-09
-6.73183e-08
1.67686e-07
1.14808e-07
3.26017e-07
2.79445e-07
3.81912e-07
4.77924e-07
4.44106e-07
6.40464e-07
3.74579e-07
7.33951e-07
1.2963e-07
7.8383e-07
-1.27432e-07
7.76973e-07
-2.80886e-07
7.55333e-07
-4.63219e-07
7.60011e-07
-7.16123e-07
7.70017e-07
-8.42991e-07
7.5013e-07
-7.96757e-07
7.11843e-07
-7.00976e-07
6.88403e-07
-5.95863e-07
6.60535e-07
-4.53988e-07
6.12917e-07
-3.33519e-07
5.80328e-07
-2.73813e-07
5.88735e-07
-2.38033e-07
6.25552e-07
-1.9429e-07
6.65594e-07
-1.45468e-07
6.9416e-07
-1.04363e-07
7.09613e-07
-7.58857e-08
7.16723e-07
-5.81269e-08
7.20376e-07
-4.61984e-08
7.2329e-07
-3.72214e-08
7.26209e-07
-2.93381e-08
7.29098e-07
-2.28102e-08
7.31726e-07
-1.73003e-08
7.34025e-07
-1.32405e-08
7.35957e-07
-1.00228e-08
7.37604e-07
-7.88276e-09
7.38973e-07
-6.11877e-09
7.40147e-07
-5.02133e-09
7.41124e-07
-4.05915e-09
7.41975e-07
-3.49222e-09
7.4269e-07
-2.991e-09
7.43331e-07
-2.71725e-09
7.43888e-07
-2.53772e-09
7.44412e-07
-2.43482e-09
-2.51458e-09
6.89842e-07
4.32995e-07
5.85636e-07
4.30222e-07
5.776e-07
3.89948e-07
6.93738e-07
3.27968e-07
8.46465e-07
2.21852e-07
9.73098e-07
2.99708e-09
1.04643e-06
-2.00763e-07
1.04619e-06
-2.80652e-07
1.00169e-06
-4.18716e-07
9.56637e-07
-6.71069e-07
9.20182e-07
-8.06536e-07
8.73656e-07
-7.50231e-07
8.07767e-07
-6.35087e-07
7.53179e-07
-5.41275e-07
7.29221e-07
-4.3003e-07
7.02039e-07
-3.06337e-07
6.58557e-07
-2.30331e-07
6.27055e-07
-2.06531e-07
6.27988e-07
-1.95223e-07
6.55506e-07
-1.72986e-07
6.92347e-07
-1.41204e-07
7.24672e-07
-1.0821e-07
7.46698e-07
-8.01536e-08
7.59018e-07
-5.85181e-08
7.65012e-07
-4.32153e-08
7.67945e-07
-3.22712e-08
7.69811e-07
-2.46764e-08
7.71398e-07
-1.88874e-08
7.72923e-07
-1.47656e-08
7.74337e-07
-1.14363e-08
7.7563e-07
-9.17588e-09
7.76754e-07
-7.24252e-09
7.77752e-07
-6.01954e-09
7.78606e-07
-4.91314e-09
7.79369e-07
-4.25496e-09
7.80022e-07
-3.64401e-09
7.80616e-07
-3.31193e-09
7.81137e-07
-3.05843e-09
7.81631e-07
-2.92851e-09
-2.97028e-09
1.07297e-06
4.70594e-07
1.02591e-06
4.77287e-07
1.02039e-06
3.95467e-07
1.0738e-06
2.74557e-07
1.13712e-06
1.58532e-07
1.19497e-06
-5.48597e-08
1.23267e-06
-2.38457e-07
1.23513e-06
-2.83115e-07
1.20368e-06
-3.87263e-07
1.11289e-06
-5.8028e-07
9.96381e-07
-6.90027e-07
8.99905e-07
-6.53756e-07
8.25948e-07
-5.6113e-07
7.59804e-07
-4.7513e-07
7.18651e-07
-3.88877e-07
7.11919e-07
-2.99605e-07
7.15576e-07
-2.33988e-07
7.09412e-07
-2.00368e-07
6.95673e-07
-1.81483e-07
6.87228e-07
-1.64542e-07
6.92323e-07
-1.463e-07
7.09057e-07
-1.24944e-07
7.30041e-07
-1.01137e-07
7.48356e-07
-7.68333e-08
7.6093e-07
-5.57897e-08
7.6807e-07
-3.9411e-08
7.7161e-07
-2.82166e-08
7.73343e-07
-2.06203e-08
7.74439e-07
-1.58612e-08
7.7538e-07
-1.2377e-08
7.76337e-07
-1.01337e-08
7.77263e-07
-8.16783e-09
7.78145e-07
-6.90164e-09
7.78921e-07
-5.68918e-09
7.79616e-07
-4.94974e-09
7.80206e-07
-4.23426e-09
7.80738e-07
-3.8439e-09
7.81199e-07
-3.52003e-09
7.81635e-07
-3.36366e-09
-3.36767e-09
1.12839e-06
4.11239e-07
1.17978e-06
4.25889e-07
1.23955e-06
3.35702e-07
1.29868e-06
2.15427e-07
1.3572e-06
1.00012e-07
1.38132e-06
-7.89842e-08
1.32825e-06
-1.85379e-07
1.28824e-06
-2.43103e-07
1.27095e-06
-3.6998e-07
1.18207e-06
-4.91397e-07
1.04318e-06
-5.51142e-07
9.22719e-07
-5.33291e-07
8.4065e-07
-4.79061e-07
7.88816e-07
-4.23296e-07
7.54588e-07
-3.5465e-07
7.40253e-07
-2.85269e-07
7.51508e-07
-2.45243e-07
7.78613e-07
-2.27473e-07
7.99812e-07
-2.02682e-07
7.99975e-07
-1.64704e-07
7.82895e-07
-1.2922e-07
7.63763e-07
-1.05812e-07
7.53325e-07
-9.06994e-08
7.52825e-07
-7.63332e-08
7.58139e-07
-6.11031e-08
7.64676e-07
-4.59485e-08
7.7002e-07
-3.35603e-08
7.73643e-07
-2.42435e-08
7.7586e-07
-1.80781e-08
7.77169e-07
-1.36857e-08
7.7801e-07
-1.09754e-08
7.78623e-07
-8.78071e-09
7.79158e-07
-7.43667e-09
7.79642e-07
-6.17344e-09
7.80112e-07
-5.41924e-09
7.80539e-07
-4.66164e-09
7.80947e-07
-4.25208e-09
7.81313e-07
-3.88595e-09
7.81666e-07
-3.7165e-09
-3.69416e-09
1.11608e-06
3.49248e-07
1.19712e-06
3.44851e-07
1.2657e-06
2.67126e-07
1.31319e-06
1.67935e-07
1.36324e-06
4.99626e-08
1.35476e-06
-7.05129e-08
1.29056e-06
-1.21178e-07
1.25248e-06
-2.0502e-07
1.20602e-06
-3.23524e-07
1.10952e-06
-3.94896e-07
1.01078e-06
-4.524e-07
9.46259e-07
-4.68769e-07
8.86458e-07
-4.19259e-07
8.33913e-07
-3.70751e-07
8.13245e-07
-3.33983e-07
8.06889e-07
-2.78913e-07
7.9e-07
-2.28354e-07
7.73553e-07
-2.11027e-07
7.77734e-07
-2.06863e-07
7.99889e-07
-1.86859e-07