/*--------------------------------*- C++ -*----------------------------------*\
| =========                 |                                                 |
| \\      /  F ield         | OpenFOAM: The Open Source CFD Toolbox           |
|  \\    /   O peration     | Version:  2112                                  |
|   \\  /    A nd           | Website:  www.openfoam.com                      |
|    \\/     M anipulation  |                                                 |
\*---------------------------------------------------------------------------*/
FoamFile
{
    version     2.0;
    format      ascii;
    arch        "LSB;label=32;scalar=64";
    class       volScalarField;
    location    "0.47";
    object      nut;
}
// * * * * * * * * * * * * * * * * * * * * * * * * * * * * * * * * * * * * * //

dimensions      [0 2 -1 0 0 0 0];

internalField   nonuniform List<scalar> 
1880
(
3.40435e-11
3.71593e-12
5.68133e-13
2.94975e-14
3.08984e-14
6.51994e-14
1.55033e-14
2.805e-15
8.54252e-15
9.61108e-15
3.68613e-14
3.936e-15
5.83582e-15
4.50907e-14
3.66751e-14
9.87625e-14
5.67075e-14
1.13084e-13
3.60841e-13
3.38763e-13
7.55249e-13
2.04678e-12
5.53287e-12
1.0773e-11
2.04497e-11
7.98316e-11
9.46488e-11
3.02287e-10
7.3201e-11
1.04753e-09
7.04872e-09
6.28586e-09
1.29317e-09
1.32823e-10
1.10445e-10
6.33045e-12
4.38817e-11
5.28027e-12
6.06033e-11
8.33699e-12
4.27845e-11
2.80051e-11
4.01263e-11
6.17764e-11
5.13306e-11
1.50284e-11
6.5557e-11
1.08644e-11
1.99185e-11
1.28051e-10
6.63263e-11
1.61991e-10
5.98469e-10
1.44752e-10
6.98213e-10
8.23471e-10
9.3813e-10
1.38941e-09
1.38702e-09
1.14621e-09
1.95789e-09
4.17545e-09
1.18233e-11
1.56327e-09
1.12134e-10
4.59192e-10
1.60082e-09
3.77738e-09
6.47688e-10
5.52684e-09
3.99625e-09
4.51664e-09
1.93352e-09
7.4272e-09
6.60159e-10
2.58039e-09
3.1958e-09
1.35491e-11
4.12493e-09
2.66008e-09
1.82489e-10
7.4109e-09
3.09436e-09
2.68704e-09
9.74072e-09
6.09371e-09
6.01283e-09
1.00153e-08
1.26594e-08
5.62198e-09
3.0442e-09
7.19517e-10
1.16557e-08
5.80681e-10
9.31171e-09
3.56724e-10
3.35608e-09
5.4917e-10
4.16081e-09
2.38199e-09
2.44625e-08
1.50626e-09
1.05202e-08
8.95107e-10
1.18942e-09
3.003e-09
2.47823e-08
2.3582e-09
3.32271e-09
7.11972e-09
4.13821e-09
1.09739e-08
6.5217e-09
9.92217e-09
1.13297e-08
1.45919e-08
1.83225e-08
1.59252e-08
2.43359e-08
2.45114e-08
8.6265e-09
1.94926e-09
4.1751e-10
2.93773e-09
1.02553e-10
2.23364e-09
1.17251e-09
3.5411e-09
2.40996e-09
5.28278e-09
2.81569e-08
3.15017e-09
1.23248e-08
2.12677e-09
4.99445e-09
2.675e-09
2.82963e-08
2.47497e-09
1.63017e-08
6.28917e-09
3.86386e-10
9.58458e-09
4.89998e-10
1.05331e-08
4.97106e-09
1.49436e-08
9.74373e-09
1.92536e-08
1.86368e-08
2.62081e-08
1.25694e-10
3.39475e-10
6.80425e-10
6.51094e-10
1.75561e-10
1.91689e-10
7.42912e-10
3.82348e-10
2.16905e-10
9.80347e-10
2.42166e-09
3.20321e-09
2.53454e-09
1.55164e-09
8.89631e-10
3.9207e-09
1.35115e-09
5.80708e-09
1.55243e-09
5.89823e-09
2.56002e-09
7.48331e-09
4.51372e-09
9.64809e-09
9.01029e-09
1.32786e-08
1.3239e-08
1.5777e-08
1.89753e-08
2.09545e-08
5.56588e-12
1.27872e-10
2.16484e-10
4.90522e-10
3.97224e-10
2.63269e-10
1.27493e-09
1.47547e-10
1.40587e-09
2.22266e-10
1.44071e-09
1.40316e-09
1.90876e-09
8.00141e-10
2.08955e-09
1.5344e-09
2.65436e-09
2.61765e-09
2.92522e-09
4.66646e-09
3.94315e-09
6.58886e-09
6.58184e-09
8.11751e-09
9.60616e-09
1.11959e-08
1.27317e-08
1.46952e-08
1.69782e-08
1.99742e-08
8.0817e-11
1.35064e-11
3.20995e-10
3.21639e-10
1.43749e-09
5.21393e-10
2.30586e-09
1.84276e-09
2.31197e-09
1.67826e-09
2.53968e-09
2.90823e-09
2.90187e-09
1.78266e-09
3.09921e-09
2.86023e-09
3.97933e-09
3.38744e-09
4.41029e-09
4.74698e-09
5.62915e-09
6.46345e-09
7.74242e-09
8.42065e-09
1.06998e-08
1.0986e-08
1.3845e-08
1.41491e-08
1.74572e-08
1.76712e-08
5.50045e-11
2.29164e-12
6.88824e-10
5.14342e-10
2.15473e-09
1.08846e-09
2.99475e-09
2.02545e-09
2.65259e-09
1.23858e-09
2.82665e-09
2.20696e-09
2.93454e-09
2.0543e-09
3.39897e-09
2.97675e-09
4.22481e-09
3.51469e-09
4.61217e-09
5.04805e-09
5.94653e-09
6.36252e-09
7.95684e-09
8.24644e-09
1.03373e-08
1.09306e-08
1.30579e-08
1.37341e-08
1.59777e-08
1.74147e-08
1.94352e-10
1.04251e-10
1.15779e-09
1.26736e-09
2.42373e-09
1.67054e-09
2.9779e-09
2.22521e-09
2.68177e-09
1.76789e-09
3.03915e-09
2.76656e-09
3.26656e-09
2.64866e-09
3.74443e-09
3.5534e-09
4.60113e-09
4.029e-09
5.04936e-09
5.48271e-09
6.55895e-09
6.71071e-09
8.27682e-09
8.62973e-09
1.04801e-08
1.07632e-08
1.29472e-08
1.35408e-08
1.57084e-08
1.63244e-08
2.44879e-10
1.87764e-10
1.43997e-09
1.67069e-09
2.22666e-09
2.04975e-09
2.53142e-09
2.17713e-09
2.48346e-09
1.95151e-09
2.8002e-09
3.0326e-09
3.21624e-09
3.12732e-09
3.77034e-09
3.89579e-09
4.51039e-09
4.35945e-09
5.17972e-09
5.75502e-09
6.67326e-09
6.90585e-09
8.26314e-09
8.71928e-09
1.01526e-08
1.06929e-08
1.24202e-08
1.32355e-08
1.49892e-08
1.58463e-08
4.25722e-10
5.8436e-10
1.56921e-09
1.55168e-09
2.08434e-09
1.89929e-09
2.49359e-09
2.09443e-09
2.6131e-09
2.23833e-09
3.09144e-09
3.06436e-09
3.58971e-09
3.25737e-09
4.07533e-09
4.05518e-09
4.79758e-09
4.65983e-09
5.49785e-09
5.91826e-09
6.9992e-09
7.09595e-09
8.35214e-09
8.75168e-09
1.00991e-08
1.05901e-08
1.21979e-08
1.30054e-08
1.46753e-08
1.52877e-08
2.4765e-10
5.8214e-10
1.29288e-09
1.48028e-09
1.69431e-09
1.98831e-09
2.11933e-09
2.21748e-09
2.61046e-09
2.44444e-09
2.93929e-09
3.39613e-09
3.38983e-09
3.51444e-09
4.0043e-09
4.31863e-09
4.70086e-09
4.92962e-09
5.61309e-09
6.14993e-09
6.91187e-09
7.29133e-09
8.29311e-09
8.81953e-09
9.81303e-09
1.05281e-08
1.18739e-08
1.27369e-08
1.41115e-08
1.48049e-08
8.9548e-11
3.62259e-10
1.33386e-09
1.25567e-09
1.79146e-09
1.91987e-09
2.23544e-09
2.33159e-09
2.67954e-09
2.64199e-09
3.20618e-09
3.34862e-09
3.66933e-09
3.67334e-09
4.23431e-09
4.46088e-09
4.97324e-09
5.17837e-09
5.86383e-09
6.21223e-09
7.15766e-09
7.43793e-09
8.39722e-09
8.84337e-09
9.8472e-09
1.05129e-08
1.17515e-08
1.25333e-08
1.38636e-08
1.45459e-08
6.07138e-12
2.17146e-10
5.44348e-10
1.10466e-09
1.44633e-09
1.93386e-09
1.99755e-09
2.24446e-09
2.53632e-09
2.52161e-09
2.92955e-09
3.36444e-09
3.37669e-09
3.66006e-09
4.18439e-09
4.52687e-09
4.83473e-09
5.23826e-09
5.84725e-09
6.28074e-09
6.88659e-09
7.51612e-09
8.35569e-09
8.78232e-09
9.57428e-09
1.03822e-08
1.1456e-08
1.22298e-08
1.32967e-08
1.40218e-08
7.79769e-11
7.38182e-10
1.31122e-09
1.41227e-09
1.59406e-09
1.8773e-09
1.99449e-09
2.30103e-09
2.48008e-09
2.67368e-09
3.1185e-09
3.29971e-09
3.46909e-09
3.7995e-09
4.18089e-09
4.57139e-09
4.96531e-09
5.35773e-09
5.93621e-09
6.29054e-09
7.01808e-09
7.60651e-09
8.34241e-09
8.82711e-09
9.63191e-09
1.03508e-08
1.13096e-08
1.20364e-08
1.31221e-08
1.39057e-08
1.13436e-12
1.31511e-11
1.33527e-10
7.22678e-10
1.18946e-09
1.40975e-09
1.22474e-09
1.5017e-09
1.70595e-09
1.94999e-09
2.35598e-09
3.05278e-09
2.98093e-09
3.51777e-09
4.04245e-09
4.43467e-09
4.74321e-09
5.28313e-09
5.83448e-09
6.25761e-09
6.7389e-09
7.41778e-09
8.08077e-09
8.50868e-09
9.24169e-09
1.00363e-08
1.08207e-08
1.14295e-08
1.22678e-08
1.30876e-08
2.15534e-09
2.45972e-09
1.62503e-09
1.53249e-09
1.9451e-09
2.32424e-09
3.15778e-09
3.48893e-09
3.35119e-09
2.90403e-09
1.77038e-09
1.32503e-09
7.14325e-10
3.91117e-10
1.42116e-10
7.80751e-11
2.97489e-11
1.46761e-11
5.33992e-12
3.35012e-12
1.04089e-12
1.22668e-14
1.90878e-12
1.49264e-11
1.89932e-11
3.75012e-11
6.1738e-11
1.63063e-10
3.29936e-10
7.54659e-10
5.12302e-09
5.63743e-09
9.74757e-10
1.50324e-10
3.29906e-11
3.58486e-12
5.70468e-13
1.35481e-13
2.23576e-13
3.36823e-13
1.1422e-12
8.24283e-13
6.19159e-13
1.45841e-12
1.96044e-12
1.80449e-12
2.47772e-12
2.9651e-12
3.72614e-12
4.76054e-12
6.2823e-12
6.57362e-12
4.97152e-12
5.17925e-12
7.36862e-12
8.46555e-12
7.26736e-12
5.51711e-12
3.54779e-12
2.03663e-12
3.4639e-11
4.70802e-12
2.541e-13
1.43113e-14
5.70066e-14
2.81736e-14
4.47193e-15
1.01897e-16
5.86384e-17
2.42183e-16
3.66656e-16
1.61177e-15
2.07664e-15
2.44207e-15
1.10678e-15
4.29534e-15
1.39759e-14
1.38718e-14
5.79741e-15
1.06487e-14
3.15463e-14
5.54753e-14
4.30153e-14
3.11892e-14
3.08288e-14
4.61377e-14
7.13895e-14
7.94083e-14
4.22788e-14
7.19411e-15
4.03146e-09
1.34867e-09
3.72531e-10
2.4088e-10
1.80873e-11
8.93563e-11
4.38396e-11
1.97463e-10
7.13932e-10
2.20901e-09
3.96515e-09
1.36209e-08
5.69697e-09
5.66037e-09
4.45469e-09
2.31237e-08
7.26877e-10
3.53041e-09
5.03417e-11
1.8014e-08
1.60055e-08
2.49498e-08
3.89694e-08
3.24644e-08
5.35137e-09
6.36877e-08
6.3642e-08
7.91623e-08
2.03897e-08
8.77783e-08
3.87075e-08
1.70004e-08
3.47545e-08
4.61514e-08
3.48119e-08
1.89284e-08
4.36059e-08
4.50873e-08
4.29874e-08
2.96461e-08
3.3683e-08
3.20212e-08
3.15607e-08
3.63713e-08
3.55953e-08
3.34443e-08
3.65793e-08
3.93248e-08
4.3012e-08
3.57046e-08
3.40277e-08
2.55589e-08
2.7162e-08
2.99653e-08
3.16727e-08
3.07545e-08
3.06419e-08
4.04316e-08
3.69257e-08
3.33877e-08
2.65154e-08
2.53086e-08
2.56063e-08
2.63023e-08
2.96134e-08
3.06601e-08
2.89236e-08
3.38818e-08
3.33205e-08
2.88959e-08
2.73046e-08
2.234e-08
2.46532e-08
2.54207e-08
2.71176e-08
2.87057e-08
2.82594e-08
3.11795e-08
2.97422e-08
2.78102e-08
2.3174e-08
2.14101e-08
2.31599e-08
2.3511e-08
2.51183e-08
2.67743e-08
2.64788e-08
2.7834e-08
2.6877e-08
2.52298e-08
2.23323e-08
1.98038e-08
2.19053e-08
2.27415e-08
2.34751e-08
2.46362e-08
2.49567e-08
2.55001e-08
2.43428e-08
2.33125e-08
1.98666e-08
1.88568e-08
2.07643e-08
2.13212e-08
2.18903e-08
2.32176e-08
2.34538e-08
2.32999e-08
2.23426e-08
2.16113e-08
1.88479e-08
1.78354e-08
1.95931e-08
2.03928e-08
2.07594e-08
2.14755e-08
2.18877e-08
2.17922e-08
2.08581e-08
1.96741e-08
1.72173e-08
1.70364e-08
1.85704e-08
1.92899e-08
1.96334e-08
2.03697e-08
2.05233e-08
2.02207e-08
1.93333e-08
1.82681e-08
1.65458e-08
1.63709e-08
1.77174e-08
1.834e-08
1.86633e-08
1.91017e-08
1.93083e-08
1.89213e-08
1.81364e-08
1.70034e-08
1.53998e-08
1.56928e-08
1.68251e-08
1.74634e-08
1.77893e-08
1.81828e-08
1.80866e-08
1.77576e-08
1.69853e-08
1.58737e-08
1.51402e-08
1.52842e-08
1.62175e-08
1.66487e-08
1.69676e-08
1.72001e-08
1.71536e-08
1.67836e-08
1.6197e-08
1.52418e-08
1.40999e-08
1.43963e-08
1.53981e-08
1.5565e-08
1.60491e-08
1.57293e-08
1.58477e-08
1.47942e-08
1.46041e-08
1.26938e-08
1.24448e-09
8.67247e-10
1.40303e-09
1.08803e-09
1.52569e-09
1.24058e-09
1.6485e-09
1.30781e-09
1.5378e-09
1.08773e-09
1.53046e-12
1.40445e-12
3.37554e-13
4.41846e-13
4.03805e-14
1.00545e-12
1.35836e-12
3.72688e-12
4.67329e-12
5.6077e-12
1.53975e-14
1.99534e-18
5.42953e-16
8.30389e-16
1.26364e-16
1.93413e-15
8.71067e-16
9.34674e-15
9.10016e-15
9.92793e-15
4.48827e-08
4.61936e-08
2.47796e-10
4.61438e-08
8.13124e-08
7.82794e-08
3.35796e-08
7.83722e-09
1.11907e-09
3.3132e-10
9.18877e-11
5.59374e-11
4.90569e-11
5.63528e-11
1.30911e-10
3.24141e-10
1.26689e-09
3.5493e-09
2.08108e-08
9.33049e-08
8.97891e-08
1.68633e-08
2.46672e-09
4.40454e-10
9.54753e-11
2.3339e-11
5.73778e-12
1.15419e-12
2.78265e-13
1.89373e-13
3.12975e-13
4.07091e-13
1.89316e-13
1.22016e-14
3.86149e-14
3.96908e-13
6.51521e-13
4.73148e-13
2.57437e-13
1.33675e-13
6.61551e-08
1.11451e-07
2.39899e-09
2.3711e-08
6.07194e-09
4.85574e-08
1.65423e-07
9.16177e-08
5.96335e-10
5.03736e-07
4.23175e-07
1.94192e-08
1.06317e-10
2.15933e-09
5.17377e-09
8.50488e-09
2.642e-08
3.87093e-08
4.91369e-08
5.905e-08
6.19591e-08
5.74805e-08
4.9579e-08
3.93141e-08
2.77856e-08
1.65494e-08
7.63096e-09
2.74383e-09
8.17911e-10
2.7222e-10
1.25872e-10
9.1652e-11
6.87841e-11
4.59071e-11
1.3433e-11
1.44178e-12
7.38438e-13
2.71266e-12
5.93176e-12
4.15154e-12
3.07167e-08
7.83566e-07
1.52108e-06
1.93079e-08
4.64805e-08
1.27471e-07
1.13106e-08
3.54449e-07
5.76754e-07
7.54434e-07
3.86495e-07
5.87121e-08
4.59861e-09
1.86677e-10
9.81848e-11
1.90167e-10
2.35283e-09
9.22775e-09
2.05531e-08
3.50733e-08
4.52271e-08
4.81577e-08
4.72695e-08
4.41174e-08
4.0527e-08
3.61101e-08
2.91259e-08
2.01971e-08
1.26827e-08
7.91694e-09
5.34009e-09
3.5187e-09
1.9299e-09
1.3366e-09
5.96159e-10
4.3992e-10
7.82616e-11
8.55786e-12
2.72523e-12
9.78399e-12
8.93692e-08
1.90075e-07
4.41825e-07
4.93723e-09
1.22362e-07
1.77161e-08
7.11741e-07
8.69481e-07
8.92382e-07
1.04234e-06
6.54969e-07
1.43146e-07
9.25363e-09
7.73291e-10
1.98252e-11
1.54076e-12
1.5021e-10
3.61852e-09
1.27887e-08
3.09438e-08
4.87378e-08
5.33905e-08
5.16246e-08
4.70916e-08
4.10989e-08
3.64131e-08
3.16672e-08
2.47826e-08
1.74436e-08
1.24744e-08
1.14065e-08
1.19375e-08
1.08723e-08
9.55359e-09
6.76396e-09
5.74077e-09
5.80793e-09
6.04361e-09
2.63148e-09
4.04783e-09
1.53956e-07
6.79216e-08
4.66925e-08
1.21132e-07
1.1278e-07
1.62371e-08
1.34134e-06
1.02444e-06
9.87384e-07
1.17352e-06
8.90918e-07
2.77481e-07
2.94238e-08
2.67969e-09
6.53789e-10
4.78609e-10
3.80944e-11
5.78918e-10
6.20111e-09
2.10371e-08
4.79341e-08
6.30583e-08
5.95972e-08
5.05338e-08
3.92501e-08
2.85485e-08
1.83555e-08
8.99156e-09
5.6069e-09
5.7926e-09
4.33138e-09
3.1313e-09
1.1432e-09
1.42442e-09
1.06124e-10
1.33033e-10
5.52655e-11
1.50243e-13
4.92755e-12
7.58129e-13
4.17594e-09
1.74257e-08
6.83221e-08
1.70055e-07
1.04403e-07
1.65877e-10
3.13888e-07
4.87594e-07
8.5358e-07
1.2151e-06
1.07226e-06
4.62886e-07
8.88901e-08
1.22741e-08
3.87724e-09
2.49121e-09
7.69989e-10
5.14707e-11
7.20368e-09
2.37756e-08
4.19734e-08
5.83146e-08
4.98042e-08
2.86505e-08
7.86473e-09
5.73378e-10
7.40289e-12
3.84545e-10
4.41776e-12
1.1683e-09
4.93027e-09
3.91826e-09
3.37901e-09
1.34374e-09
1.38892e-12
6.87595e-10
2.47816e-08
4.63309e-10
6.5834e-10
1.53393e-11
1.6016e-09
5.1062e-09
1.58005e-07
2.57063e-07
1.71479e-07
1.02223e-10
4.97061e-07
8.03448e-07
1.0622e-06
1.27122e-06
1.15251e-06
5.87951e-07
1.86998e-07
4.78319e-08
2.30222e-08
1.43527e-08
1.44645e-09
5.43157e-11
1.02968e-08
4.56895e-08
5.97573e-08
5.58901e-08
3.82872e-08
1.93167e-08
6.3893e-09
9.96682e-10
6.08866e-10
2.17413e-09
5.15961e-09
9.41782e-09
1.18188e-08
4.14939e-09
1.0979e-09
3.77593e-09
5.68121e-09
4.03498e-12
6.70374e-12
3.00551e-09
4.24726e-10
1.15362e-08
1.90199e-08
1.5945e-08
2.51256e-09
6.12843e-08
2.34486e-07
1.29137e-07
5.32698e-10
2.09915e-07
1.1662e-06
1.68949e-06
1.59962e-06
1.07726e-06
5.61256e-07
2.08162e-07
8.00044e-08
5.2235e-08
7.34212e-09
2.97991e-09
4.16771e-08
6.49878e-08
5.47884e-08
4.41398e-08
3.55325e-08
2.86719e-08
2.72715e-08
2.63441e-08
2.42591e-08
2.01345e-08
1.85905e-08
1.82434e-08
1.74516e-08
1.1472e-08
3.10356e-09
2.24962e-09
2.23342e-09
7.87571e-09
7.68654e-09
7.54567e-09
3.11477e-09
6.4632e-10
7.92775e-07
2.1123e-09
1.46409e-08
6.6193e-09
7.24211e-09
2.34031e-10
4.34657e-10
5.77946e-08
5.90519e-07
1.28349e-06
1.46696e-06
1.22426e-06
7.46547e-07
3.40718e-07
1.4303e-07
4.57623e-08
5.73801e-11
3.18629e-08
6.27086e-08
4.53969e-08
4.17372e-08
4.04212e-08
3.95851e-08
3.5917e-08
3.36021e-08
3.12582e-08
2.51116e-08
1.34333e-08
8.00001e-09
1.07456e-08
1.52752e-08
1.41316e-08
9.71053e-09
7.29083e-09
4.98302e-09
5.73704e-09
5.00147e-09
2.54178e-09
7.26743e-10
8.90691e-12
1.59182e-08
1.47164e-07
2.9582e-08
1.10582e-08
4.48467e-09
7.49058e-10
4.68663e-08
2.3705e-07
7.4603e-07
1.23082e-06
1.33145e-06
1.20689e-06
1.03624e-06
6.01653e-07
1.03554e-07
5.02152e-10
5.24495e-08
7.90465e-08
6.8172e-08
4.27929e-08
4.17419e-08
4.29588e-08
3.71918e-08
3.06666e-08
2.42257e-08
2.42423e-08
2.65966e-08
2.24178e-08
1.4205e-08
9.06912e-09
1.04587e-08
4.73107e-09
8.63216e-09
1.24027e-10
4.20347e-08
4.30922e-09
3.47676e-09
4.32831e-09
4.75088e-10
2.23029e-08
2.64392e-08
3.51472e-08
2.05384e-08
4.96215e-08
2.65803e-09
2.45076e-09
8.15052e-08
4.84686e-07
1.03316e-06
1.16807e-06
1.09594e-06
9.54555e-07
7.03189e-07
1.92023e-08
2.95212e-08
6.83774e-08
7.16633e-08
6.7369e-08
6.12608e-08
5.09787e-08
4.19778e-08
3.62563e-08
3.27033e-08
2.92109e-08
2.53005e-08
2.25651e-08
1.73581e-08
4.64756e-09
3.54313e-09
2.312e-10
3.62555e-09
2.72866e-08
8.50806e-08
4.65384e-08
2.77742e-09
2.44725e-09
4.14365e-09
2.97415e-09
8.77991e-10
1.03519e-09
3.82942e-08
2.46756e-08
3.22837e-08
3.2778e-08
5.60495e-08
3.7857e-08
1.4554e-08
5.18625e-09
2.54365e-10
6.01362e-08
5.00818e-10
9.31987e-09
3.37131e-08
5.93022e-08
6.5412e-08
6.37593e-08
5.85493e-08
5.12771e-08
4.53458e-08
4.38016e-08
4.17231e-08
3.50301e-08
2.84253e-08
2.1978e-08
8.85105e-09
6.02951e-09
1.25406e-08
1.31003e-08
8.07711e-09
2.51526e-09
8.2033e-09
6.85732e-09
9.16684e-09
9.33928e-09
1.01918e-09
4.45557e-12
3.80386e-10
6.16023e-11
3.24926e-08
5.18466e-08
3.00377e-08
2.68454e-08
3.00325e-08
2.87073e-08
3.6442e-08
4.79598e-08
4.87744e-08
4.51244e-08
4.49755e-08
5.15618e-08
5.648e-08
5.88857e-08
6.03433e-08
6.28966e-08
5.46504e-08
4.97347e-08
4.79205e-08
4.48088e-08
4.26823e-08
3.78798e-08
3.52118e-08
3.24128e-08
2.92444e-08
2.79702e-08
2.47446e-08
2.05054e-08
1.91324e-08
1.7021e-08
1.47696e-08
1.23357e-08
1.05637e-08
1.03586e-08
6.47164e-09
5.92681e-09
3.43139e-09
2.14506e-09
2.83785e-09
3.6511e-09
6.10347e-09
2.4747e-09
3.05308e-08
2.66636e-08
2.75621e-08
2.70022e-08
3.43625e-08
4.23853e-08
4.67132e-08
4.8268e-08
4.82791e-08
5.34399e-08
5.50607e-08
5.26439e-08
5.22359e-08
5.18932e-08
4.96336e-08
4.09107e-08
3.98245e-08
4.08199e-08
3.91564e-08
3.5909e-08
3.17132e-08
2.89888e-08
2.68373e-08
2.42932e-08
2.22273e-08
1.99254e-08
1.81416e-08
1.58138e-08
1.20032e-08
1.20574e-08
9.65551e-09
8.5861e-09
4.96117e-09
3.71891e-10
3.06969e-09
1.36828e-10
4.54938e-10
5.66884e-08
4.10624e-08
1.84587e-09
2.48734e-08
2.4124e-08
2.25321e-08
2.67582e-08
3.08889e-08
3.48345e-08
4.01215e-08
4.17385e-08
4.16206e-08
4.46272e-08
4.6261e-08
4.56848e-08
4.49643e-08
4.37227e-08
4.36936e-08
3.88931e-08
3.30115e-08
3.45317e-08
3.35628e-08
3.10378e-08
2.97466e-08
2.69314e-08
2.44808e-08
2.31398e-08
1.95454e-08
1.54472e-08
1.5008e-08
1.44936e-08
1.09567e-08
6.99323e-09
8.40835e-09
7.20455e-09
6.96853e-09
1.72941e-10
3.14701e-10
3.26431e-09
8.91092e-10
2.39479e-11
4.70577e-09
1.08641e-09
2.37995e-08
2.29728e-08
2.20275e-08
2.71912e-08
2.97181e-08
3.02496e-08
3.23489e-08
3.30483e-08
3.38838e-08
3.71866e-08
3.81926e-08
3.9332e-08
3.86104e-08
3.62681e-08
3.44875e-08
3.42954e-08
3.15519e-08
2.85488e-08
2.93801e-08
2.82831e-08
2.69361e-08
2.57791e-08
2.29544e-08
2.09358e-08
2.01568e-08
1.8336e-08
1.63875e-08
1.47382e-08
1.32098e-08
1.05498e-08
9.49371e-09
7.85116e-09
7.86879e-09
7.85747e-09
4.48648e-09
3.44398e-09
2.83077e-09
1.57465e-12
3.85237e-09
1.32058e-09
2.16763e-08
2.07991e-08
2.13205e-08
2.51933e-08
2.75166e-08
2.75819e-08
2.72202e-08
2.72597e-08
2.90718e-08
3.22955e-08
3.244e-08
3.35792e-08
3.32984e-08
3.14601e-08
2.87637e-08
2.87226e-08
2.91958e-08
2.61572e-08
2.47179e-08
2.62788e-08
2.50008e-08
2.32303e-08
2.21928e-08
2.04065e-08
1.84721e-08
1.79689e-08
1.62716e-08
1.36736e-08
1.22322e-08
1.13665e-08
1.03288e-08
8.11392e-09
5.96848e-09
6.01797e-09
2.28884e-09
3.73165e-09
2.70985e-09
2.44597e-11
2.19788e-10
3.14704e-10
2.02999e-08
1.92884e-08
2.01959e-08
2.2828e-08
2.45831e-08
2.48957e-08
2.40663e-08
2.3488e-08
2.47605e-08
2.722e-08
2.88056e-08
2.88332e-08
2.82749e-08
2.65585e-08
2.54157e-08
2.34961e-08
2.38815e-08
2.43598e-08
2.30545e-08
2.21162e-08
2.27307e-08
2.14895e-08
2.03811e-08
1.99861e-08
1.85674e-08
1.63697e-08
1.53259e-08
1.40233e-08
1.27488e-08
1.03427e-08
9.67509e-09
7.94922e-09
6.18516e-09
5.63967e-09
4.19863e-09
3.89955e-09
3.64964e-09
3.87484e-09
1.47541e-09
6.07425e-10
1.88751e-08
1.83042e-08
1.87623e-08
2.0687e-08
2.17125e-08
2.13611e-08
2.10684e-08
2.08048e-08
2.14075e-08
2.28178e-08
2.39979e-08
2.44049e-08
2.41443e-08
2.2874e-08
2.19922e-08
2.15134e-08
1.9842e-08
2.04359e-08
2.18473e-08
2.06952e-08
1.99752e-08
2.09202e-08
2.04869e-08
1.89384e-08
1.80516e-08
1.67864e-08
1.54439e-08
1.37292e-08
1.29682e-08
1.08994e-08
9.47767e-09
8.29763e-09
7.42709e-09
6.94675e-09
5.10579e-09
4.11947e-09
2.90092e-09
2.57922e-09
3.4136e-09
2.42931e-09
1.74545e-08
1.68357e-08
1.70855e-08
1.8419e-08
1.9195e-08
1.87625e-08
1.80142e-08
1.82553e-08
1.87785e-08
1.93847e-08
2.04322e-08
2.05085e-08
1.99155e-08
1.99843e-08
1.87416e-08
1.78558e-08
1.84642e-08
1.78819e-08
1.78243e-08
1.92884e-08
1.96107e-08
1.90759e-08
1.9002e-08
1.82297e-08
1.71591e-08
1.61413e-08
1.51958e-08
1.33015e-08
1.1783e-08
1.04893e-08
9.71943e-09
8.11096e-09
6.76027e-09
5.24123e-09
4.63545e-09
4.29298e-09
3.7788e-09
3.4929e-09
2.48437e-09
1.63347e-09
1.63459e-08
1.60019e-08
1.59945e-08
1.63508e-08
1.65949e-08
1.6495e-08
1.58902e-08
1.5568e-08
1.62528e-08
1.69333e-08
1.70822e-08
1.74971e-08
1.73752e-08
1.64046e-08
1.62345e-08
1.57327e-08
1.51751e-08
1.59245e-08
1.64606e-08
1.68302e-08
1.7881e-08
1.81757e-08
1.76997e-08
1.70794e-08
1.6424e-08
1.49121e-08
1.35849e-08
1.21321e-08
1.10392e-08
9.24482e-09
7.97698e-09
6.71417e-09
5.94211e-09
5.10588e-09
4.09815e-09
3.33713e-09
2.75132e-09
2.38281e-09
2.49059e-09
2.20923e-09
1.50497e-08
1.46153e-08
1.43649e-08
1.45517e-08
1.44966e-08
1.40207e-08
1.3725e-08
1.35927e-08
1.36317e-08
1.43636e-08
1.494e-08
1.49062e-08
1.50474e-08
1.46598e-08
1.36998e-08
1.35489e-08
1.33357e-08
1.29347e-08
1.36138e-08
1.41487e-08
1.38061e-08
1.33098e-08
1.26488e-08
1.10205e-08
9.2642e-09
7.68551e-09
6.34069e-09
4.65437e-09
3.54794e-09
2.56927e-09
2.22375e-09
1.48449e-09
1.18636e-09
6.85016e-10
6.12219e-10
6.06627e-10
5.42894e-10
6.79553e-10
4.77234e-10
4.85877e-10
1.46035e-08
1.41706e-08
1.37469e-08
1.33697e-08
1.30402e-08
1.26538e-08
1.22127e-08
1.21555e-08
1.25341e-08
1.29827e-08
1.37134e-08
1.42646e-08
1.40592e-08
1.36509e-08
1.26629e-08
1.02808e-08
7.67767e-09
5.3297e-09
2.92538e-09
1.22731e-09
5.07181e-10
1.43869e-10
2.67624e-11
4.71926e-12
5.29601e-12
1.60533e-11
2.14576e-11
3.06209e-11
1.85994e-11
1.39622e-11
3.34105e-12
1.35006e-12
3.4664e-14
9.61697e-13
7.23001e-12
9.66287e-12
2.00605e-11
2.86377e-11
3.97175e-11
7.78891e-11
1.22728e-08
1.20716e-08
1.18851e-08
1.17941e-08
1.15673e-08
1.1251e-08
1.11186e-08
1.10929e-08
1.12975e-08
1.18192e-08
1.18938e-08
1.14663e-08
1.03977e-08
7.9016e-09
4.69785e-09
2.05181e-09
3.79736e-10
9.63085e-13
5.22205e-11
3.35196e-10
7.72681e-10
1.05818e-09
1.0863e-09
1.05951e-09
9.29925e-10
6.959e-10
4.29201e-10
2.63594e-10
1.40871e-10
7.17711e-11
2.16362e-11
6.83581e-12
6.08529e-13
4.75681e-14
2.26434e-13
1.30883e-12
3.83979e-12
7.57706e-12
7.71804e-12
8.69909e-12
1.09349e-09
1.08436e-09
1.16034e-09
1.35754e-09
1.5815e-09
1.78589e-09
2.00263e-09
2.2087e-09
2.40399e-09
2.57879e-09
2.5648e-09
2.2925e-09
1.78474e-09
1.13398e-09
4.96791e-10
1.15131e-10
3.16554e-12
1.61784e-11
1.35511e-10
2.93775e-10
3.67216e-10
3.37532e-10
2.64255e-10
2.06068e-10
1.56775e-10
1.10132e-10
6.32331e-11
3.29494e-11
1.5559e-11
7.12009e-12
1.76824e-12
2.24291e-13
2.58976e-14
1.43777e-13
6.64409e-13
8.72683e-13
1.98069e-12
2.009e-12
2.95587e-12
2.21786e-12
6.36273e-12
6.51253e-12
9.25865e-12
1.50993e-11
2.34399e-11
3.4883e-11
4.91074e-11
6.29439e-11
8.12742e-11
1.03e-10
1.16985e-10
1.21049e-10
1.10403e-10
7.93523e-11
4.03877e-11
1.06379e-11
6.8992e-13
5.06188e-12
2.62918e-11
5.42651e-11
7.05966e-11
6.82843e-11
5.0842e-11
3.23739e-11
1.82564e-11
9.10405e-12
3.48785e-12
1.16221e-12
2.66725e-13
2.04799e-14
5.01093e-15
1.02443e-13
4.36334e-13
6.62053e-13
1.09577e-12
1.02469e-12
1.23516e-12
9.43381e-13
8.12137e-13
5.19073e-13
1.8704e-14
9.92793e-15
2.792e-14
6.54828e-14
1.26137e-13
2.30142e-13
3.99861e-13
6.3783e-13
9.61035e-13
1.44699e-12
2.12799e-12
2.83721e-12
3.28592e-12
3.53429e-12
2.53436e-12
4.23843e-13
1.53005e-13
3.1182e-12
9.57276e-12
1.15241e-11
6.80488e-12
1.64161e-12
9.80938e-14
5.48185e-15
1.91106e-13
4.53872e-13
6.21408e-13
6.07837e-13
5.94947e-13
4.8417e-13
3.95533e-13
2.70646e-13
1.95223e-13
1.16393e-13
7.43808e-14
3.69097e-14
2.19024e-14
8.71113e-15
1.25268e-14
3.63998e-14
)
;

boundaryField
{
    inlet
    {
        type            calculated;
        value           nonuniform List<scalar> 
20
(
1.58491e-34
1.03887e-32
6.60337e-33
1.10298e-32
1.2868e-33
4.4444e-35
5.79343e-36
1.12665e-34
2.12604e-35
1.38035e-34
1.96496e-34
7.08329e-34
1.28345e-33
8.99449e-34
2.99168e-34
6.01399e-34
9.3948e-35
5.51712e-33
6.06368e-33
1.49105e-34
)
;
    }
    outlet
    {
        type            calculated;
        value           nonuniform List<scalar> 
27
(
6.15443e-34
1.01675e-32
2.00693e-34
4.41414e-34
1.16166e-33
6.22454e-33
2.3006e-33
1.68539e-32
1.13006e-32
7.31423e-33
2.13384e-33
1.30514e-32
9.4525e-33
1.38997e-32
5.4159e-33
1.02401e-33
4.39712e-37
3.09462e-35
9.98568e-35
1.58742e-35
5.68923e-35
2.5507e-34
7.26497e-36
2.15011e-32
5.65875e-33
1.95517e-34
2.21157e-33
)
;
    }
    lowerWall
    {
        type            fixedValue;
        value           uniform 0;
    }
    upperWall
    {
        type            fixedValue;
        value           uniform 0;
    }
    defaultFaces
    {
        type            empty;
    }
}


// ************************************************************************* //
