/*--------------------------------*- C++ -*----------------------------------*\
| =========                 |                                                 |
| \\      /  F ield         | OpenFOAM: The Open Source CFD Toolbox           |
|  \\    /   O peration     | Version:  2112                                  |
|   \\  /    A nd           | Website:  www.openfoam.com                      |
|    \\/     M anipulation  |                                                 |
\*---------------------------------------------------------------------------*/
FoamFile
{
    version     2.0;
    format      ascii;
    arch        "LSB;label=32;scalar=64";
    class       volScalarField;
    location    "0.47";
    object      p;
}
// * * * * * * * * * * * * * * * * * * * * * * * * * * * * * * * * * * * * * //

dimensions      [0 2 -2 0 0 0 0];

internalField   nonuniform List<scalar> 
1880
(
0.00311761
0.00298473
0.00289185
0.0028428
0.00281536
0.00279373
0.00277563
0.00275735
0.00274321
0.00272966
0.00272108
0.00271611
0.00271133
0.00271591
0.00271862
0.00272822
0.00274618
0.00276419
0.00279314
0.00283028
0.00286997
0.00292293
0.00298722
0.00304533
0.00312874
0.00320163
0.00327571
0.0033312
0.00336979
0.00330195
0.00293829
0.00290693
0.0028653
0.00282936
0.00280025
0.00277912
0.00276053
0.00274754
0.00273251
0.00272215
0.00271112
0.00270598
0.00269978
0.00270328
0.00270469
0.00271184
0.00272835
0.00274207
0.00276858
0.00280238
0.00283211
0.00288758
0.00293637
0.00299345
0.00306185
0.00312898
0.00319056
0.0032453
0.00329074
0.00329064
0.00290374
0.00288447
0.00285356
0.00282188
0.00279449
0.00277227
0.0027537
0.0027399
0.00272444
0.00271458
0.00270205
0.00269604
0.00268785
0.00268786
0.00268776
0.00269046
0.00270355
0.00271196
0.00273283
0.00275637
0.00278031
0.00281937
0.00285615
0.00289496
0.00294496
0.00299007
0.00302676
0.00306578
0.00309065
0.00310383
0.00284599
0.00283653
0.00281704
0.00279725
0.00277556
0.00275686
0.00273944
0.00272434
0.00271034
0.00269821
0.00268811
0.00267807
0.00267094
0.00266607
0.00266445
0.00266303
0.00266985
0.00267424
0.00268695
0.00270058
0.00271638
0.00274098
0.00276282
0.00278506
0.00281696
0.00283354
0.00285379
0.00286329
0.00286276
0.00284571
0.00281636
0.00281073
0.00279657
0.00278108
0.00276329
0.00274675
0.00272901
0.00271343
0.00269802
0.00268517
0.00267393
0.00266204
0.00265294
0.0026446
0.00263982
0.00263415
0.00263447
0.00263518
0.00263778
0.00264412
0.00264978
0.00266096
0.0026685
0.00267646
0.00268462
0.00268521
0.00267975
0.00266329
0.00263333
0.00259003
0.00278858
0.00278396
0.00277292
0.00275959
0.00274583
0.00273049
0.00271509
0.00269841
0.0026829
0.00266839
0.00265642
0.00264284
0.00263119
0.00262056
0.00261161
0.00260194
0.00259666
0.00259103
0.00258668
0.00258359
0.00258005
0.00257887
0.00257367
0.00256467
0.00255719
0.00253814
0.00251119
0.00247202
0.00241868
0.00234775
0.0027671
0.00276375
0.00275477
0.00274309
0.00273113
0.00271703
0.00270247
0.00268549
0.00266898
0.00265302
0.00263921
0.0026238
0.0026092
0.00259598
0.00258273
0.00256929
0.00255772
0.00254689
0.00253474
0.00252289
0.00251042
0.00249804
0.00247983
0.0024581
0.00243382
0.00239794
0.00235347
0.00229465
0.00221883
0.00212863
0.00275006
0.00274639
0.0027392
0.00272804
0.00271697
0.00270318
0.00268885
0.00267175
0.00265401
0.00263675
0.002621
0.00260343
0.00258625
0.0025698
0.00255294
0.00253501
0.00251814
0.00250128
0.00248235
0.00246222
0.00244136
0.00241802
0.00238957
0.00235442
0.00231641
0.00226684
0.00220628
0.0021302
0.00203871
0.00193114
0.0027363
0.00273279
0.00272649
0.00271557
0.00270472
0.00269074
0.00267613
0.00265873
0.00263958
0.00262106
0.00260308
0.00258337
0.00256345
0.00254375
0.00252331
0.00250102
0.00247883
0.00245647
0.00243096
0.0024032
0.00237413
0.00234159
0.00230297
0.0022567
0.00220667
0.00214463
0.00207026
0.00198136
0.00187605
0.00175492
0.00272632
0.00272239
0.00271644
0.00270574
0.00269429
0.00267988
0.0026643
0.00264631
0.00262587
0.00260559
0.00258569
0.0025635
0.00254088
0.00251806
0.00249394
0.0024674
0.00244039
0.00241258
0.00238108
0.00234607
0.00230984
0.00226876
0.00222122
0.00216532
0.00210441
0.00203207
0.00194667
0.00184647
0.00173078
0.00159974
0.00271949
0.00271531
0.00270936
0.0026985
0.00268607
0.00267077
0.00265378
0.00263494
0.00261293
0.00259088
0.00256902
0.00254423
0.00251906
0.00249315
0.00246538
0.00243495
0.00240321
0.00237043
0.00233337
0.00229177
0.00224897
0.00220055
0.00214478
0.00208055
0.00201053
0.00192956
0.00183487
0.00172578
0.00160227
0.00146355
0.00271633
0.00271183
0.00270525
0.00269401
0.00268023
0.00266369
0.00264511
0.00262487
0.0026014
0.00257739
0.00255355
0.00252633
0.00249843
0.0024697
0.00243841
0.0024041
0.00236816
0.00233071
0.00228854
0.00224107
0.00219229
0.00213747
0.00207434
0.002003
0.00192526
0.00183693
0.00173506
0.00161891
0.00148934
0.00134533
0.00271685
0.0027119
0.00270425
0.00269199
0.00267642
0.00265806
0.00263749
0.00261557
0.00259055
0.00256453
0.00253885
0.00250934
0.00247883
0.00244751
0.00241277
0.00237492
0.00233519
0.00229333
0.00224664
0.00219403
0.00213983
0.00207958
0.00201002
0.0019325
0.00184854
0.00175416
0.00164643
0.0015248
0.00139068
0.00124272
0.00272205
0.00271667
0.00270776
0.00269417
0.00267661
0.00265609
0.00263341
0.00260939
0.00258268
0.00255464
0.00252674
0.00249502
0.00246172
0.00242771
0.00238979
0.00234844
0.00230526
0.00225939
0.00220846
0.00215143
0.00209235
0.0020273
0.00195222
0.00186951
0.0017806
0.00168119
0.00156874
0.00144299
0.0013055
0.00115521
0.00273168
0.00272499
0.00271352
0.00269706
0.00267637
0.00265295
0.00262783
0.0026017
0.00257341
0.00254373
0.00251401
0.00248054
0.00244499
0.0024087
0.00236804
0.00232366
0.00227759
0.0022282
0.00217353
0.00211288
0.0020495
0.00198017
0.00190063
0.00181364
0.00172071
0.00161719
0.0015009
0.00137223
0.0012324
0.0010801
0.00275059
0.0027425
0.00272792
0.00270756
0.00268291
0.00265605
0.00262836
0.0026001
0.00257022
0.00253892
0.00250701
0.0024714
0.00243328
0.00239417
0.00235067
0.00230326
0.00225429
0.00220159
0.00214336
0.00207956
0.00201232
0.00193901
0.00185586
0.0017655
0.0016692
0.00156218
0.00144279
0.00131213
0.00117094
0.00101801
0.00277102
0.00275878
0.00273831
0.00271229
0.00268349
0.00265388
0.00262444
0.00259476
0.00256354
0.00253081
0.00249684
0.00245922
0.00241909
0.00237781
0.00233228
0.00228284
0.00223175
0.00217652
0.00211554
0.00204942
0.00197905
0.00190219
0.00181634
0.00172359
0.00162453
0.00151486
0.00139348
0.00126164
0.00111926
0.000964779
0.00282427
0.00280167
0.00276728
0.0027298
0.00269405
0.00266067
0.00262945
0.00259814
0.00256505
0.0025303
0.00249384
0.00245426
0.00241242
0.00236899
0.00232171
0.0022706
0.00221719
0.00215929
0.00209559
0.00202683
0.0019532
0.00187301
0.00178504
0.00169006
0.00158803
0.00147603
0.00135346
0.00122124
0.00107898
0.000924956
0.00285303
0.00281829
0.00277328
0.0027307
0.00269304
0.00265952
0.00262798
0.00259541
0.00256076
0.00252466
0.0024864
0.00244542
0.00240242
0.00235716
0.00230833
0.00225571
0.00219982
0.00213962
0.00207426
0.00200388
0.00192758
0.00184489
0.00175641
0.00166096
0.00155691
0.00144328
0.00131996
0.00118711
0.00104429
0.00088982
0.0030326
0.00289272
0.00279538
0.00274126
0.00270533
0.00267164
0.00263714
0.00260118
0.00256396
0.002526
0.00248661
0.00244538
0.00240189
0.00235551
0.00230576
0.00225239
0.00219522
0.00213391
0.00206754
0.00199589
0.00191839
0.00183489
0.00174514
0.00164802
0.00154247
0.00142821
0.00130509
0.00117305
0.00103155
0.000879367
0.00343025
0.00353102
0.00316873
0.00283082
0.00224607
0.00170385
0.000791102
5.75705e-05
-0.00132426
-0.00261917
0.00344203
0.00336216
0.00284294
0.002451
0.00179583
0.00120448
0.000350178
-0.00053123
-0.00166316
-0.00294496
0.003143
0.00294911
0.00249397
0.00215924
0.00153685
0.00102937
0.000187211
-0.000543251
-0.00159873
-0.00250949
0.00284033
0.00262267
0.00222001
0.00180119
0.00125408
0.000669706
-2.86725e-05
-0.000793246
-0.00164837
-0.00251019
0.00253577
0.00230376
0.00189234
0.00152382
0.00101181
0.000497248
-0.000147668
-0.000848123
-0.0015906
-0.00232425
0.00226831
0.00202021
0.00166684
0.00126983
0.000818836
0.000292517
-0.000277948
-0.000931041
-0.00158889
-0.00224406
0.00202321
0.00178288
0.00143206
0.00105983
0.000637717
0.00015723
-0.00036602
-0.000956401
-0.00154824
-0.00212462
0.00181001
0.001569
0.00124897
0.000882944
0.000494011
4.00396e-05
-0.000442657
-0.000980652
-0.00152136
-0.0020413
0.00161973
0.00138789
0.00108004
0.000733696
0.000366357
-5.21375e-05
-0.00050055
-0.000991459
-0.00148494
-0.00195544
0.00145554
0.00122973
0.000940645
0.000610058
0.000264043
-0.000125166
-0.000543277
-0.000994823
-0.00144762
-0.00188073
0.00131126
0.0010933
0.000817934
0.000505148
0.000176672
-0.000185875
-0.000576766
-0.000994215
-0.00141049
-0.00181074
0.00118834
0.000977301
0.000716287
0.000419701
0.000107579
-0.000232313
-0.000598265
-0.000985744
-0.00137099
-0.00174463
0.00108121
0.000876162
0.000627446
0.000346323
4.89133e-05
-0.000271744
-0.000615446
-0.000976463
-0.00133492
-0.00168437
0.000992027
0.000792847
0.000555731
0.0002887
4.95056e-06
-0.000299076
-0.000622818
-0.000960819
-0.00129722
-0.00162714
0.000914228
0.000719034
0.000491791
0.000237423
-3.3923e-05
-0.000323562
-0.000629799
-0.000947686
-0.00126486
-0.00157685
0.000852365
0.000661911
0.000443822
0.00020074
-5.93947e-05
-0.000336495
-0.00062784
-0.000929099
-0.00123087
-0.00152921
0.000797231
0.000609094
0.000398263
0.000165019
-8.48509e-05
-0.000350665
-0.000628815
-0.000915609
-0.00120373
-0.00148932
0.000758557
0.000574304
0.000369946
0.000144736
-9.68053e-05
-0.000353456
-0.000621244
-0.000897111
-0.00117543
-0.00145241
0.000722748
0.000540301
0.000340812
0.000122906
-0.000110808
-0.000358927
-0.000617244
-0.000883689
-0.00115375
-0.00142317
0.000714781
0.000533177
0.000334695
0.000119194
-0.000110921
-0.000354796
-0.00060913
-0.000872529
-0.00114017
-0.00141001
-0.0052678
-0.00564765
-0.00585139
-0.00594388
-0.00609057
-0.0061098
-0.00727609
-0.00967705
-0.0118877
-0.01322
-0.0135264
-0.0128766
-0.0114807
-0.00965886
-0.00755585
-0.00539365
-0.00325177
-0.00128588
0.00031184
0.00153387
0.00229484
0.00264081
0.00270667
0.00258087
0.00235496
0.00208946
0.00182096
0.00157083
0.00134979
0.00115995
0.000997248
0.000856124
0.000727994
0.000606114
0.000485132
0.000367188
0.000256533
0.0001602
8.18533e-05
1.96862e-05
-0.00542708
-0.00572519
-0.00592826
-0.00589515
-0.00603649
-0.00671349
-0.00825157
-0.0106457
-0.0126984
-0.0139147
-0.0140829
-0.0133233
-0.0118226
-0.00993792
-0.00780734
-0.00564085
-0.00350267
-0.00150083
0.000122654
0.00136765
0.00215027
0.00252086
0.00260528
0.00249803
0.0022887
0.00203676
0.00177866
0.00153627
0.00132155
0.00113666
0.000977572
0.000838864
0.00071146
0.000589488
0.000468916
0.000353079
0.000247025
0.000155686
8.17022e-05
2.15092e-05
-0.00562917
-0.00595124
-0.0058626
-0.00615115
-0.00629226
-0.00745029
-0.00952289
-0.0118991
-0.0138482
-0.0149689
-0.0149993
-0.0140538
-0.0123797
-0.0103791
-0.00823971
-0.0060598
-0.00392605
-0.00190328
-0.000236137
0.00103297
0.00185438
0.00225787
0.00237184
0.00229708
0.00212011
0.00189846
0.00166733
0.00144729
0.00125024
0.00107796
0.000927956
0.00079605
0.000675522
0.000562594
0.000453268
0.000350025
0.000254115
0.000167341
9.28838e-05
2.84572e-05
-0.00525653
-0.00555325
-0.00547809
-0.00561335
-0.00625335
-0.0082447
-0.010681
-0.0130096
-0.0149313
-0.0160145
-0.0159431
-0.0148135
-0.0129821
-0.0108721
-0.00869615
-0.00652711
-0.00440936
-0.00237681
-0.000686672
0.000603424
0.00145254
0.00189302
0.00204525
0.00201548
0.00188549
0.00170838
0.00151671
0.00132927
0.00115779
0.00100553
0.000870226
0.000748543
0.000636619
0.000530519
0.000429254
0.000333038
0.000244098
0.000163551
9.24433e-05
2.93444e-05
-0.00548701
-0.0059444
-0.00534275
-0.00560804
-0.00604873
-0.00856728
-0.0112991
-0.0137552
-0.0157681
-0.0169075
-0.0168273
-0.0155433
-0.0135471
-0.0113192
-0.00912565
-0.00697568
-0.00487301
-0.00286006
-0.00116269
0.00012781
0.000982925
0.0014535
0.00164954
0.00167289
0.00159896
0.00147546
0.00133166
0.00118426
0.00104408
0.000915165
0.000796853
0.000687518
0.000585857
0.000489998
0.000398768
0.000312421
0.00023162
0.000157754
9.07897e-05
2.97141e-05
-0.00439174
-0.00500535
-0.00426485
-0.00464163
-0.00564048
-0.00848082
-0.0114878
-0.0140354
-0.0160823
-0.0172412
-0.0171797
-0.0158762
-0.0138502
-0.0116061
-0.00941627
-0.00729754
-0.00522299
-0.00325699
-0.00159245
-0.000322027
0.000523529
0.00101
0.00124374
0.00132002
0.00130491
0.0012374
0.00114248
0.00103514
0.00092622
0.000821107
0.000720896
0.0006254
0.0005351
0.000449803
0.000367961
0.000289825
0.000216472
0.000149245
8.68684e-05
2.83575e-05
-0.00464181
-0.005745
-0.00482253
-0.00447192
-0.00518971
-0.00801677
-0.0110935
-0.0137187
-0.0157998
-0.0169726
-0.0169608
-0.0157351
-0.0138044
-0.0116406
-0.00950365
-0.00743968
-0.00542341
-0.003526
-0.00193283
-0.000725491
9.10173e-05
0.000596247
0.000874653
0.00100058
0.00103548
0.00101547
0.000962328
0.000889606
0.000808427
0.000725168
0.000641929
0.000559867
0.000480386
0.000405103
0.000332643
0.000264132
0.00019842
0.000138126
8.11415e-05
2.63959e-05
-0.00519391
-0.00435459
-0.0033817
-0.00358198
-0.004919
-0.00747478
-0.0103342
-0.0128288
-0.0147837
-0.0158958
-0.0159846
-0.0150117
-0.0133395
-0.0113703
-0.00935167
-0.00737847
-0.00545688
-0.00367874
-0.00219459
-0.00107045
-0.000300729
0.000203286
0.000520924
0.000702823
0.000789396
0.000811938
0.000792471
0.000746835
0.000688433
0.000625229
0.000558479
0.000490168
0.000422102
0.000358052
0.000296369
0.000236963
0.000177868
0.000125532
7.4102e-05
2.42521e-05
-0.00393288
-0.0043774
-0.00456718
-0.00446016
-0.00477723
-0.00704372
-0.00964507
-0.0118517
-0.0135536
-0.0145647
-0.0147272
-0.013993
-0.0125895
-0.0108197
-0.00893687
-0.00709062
-0.00531221
-0.0037014
-0.00237552
-0.00136324
-0.00063329
-0.000129821
0.000206527
0.000420442
0.000543461
0.000603074
0.000618014
0.000599606
0.000561757
0.000516162
0.000465686
0.000412442
0.000357807
0.000305401
0.000254657
0.000206109
0.00016097
0.000112375
6.61831e-05
2.18464e-05
-0.00339171
-0.00391184
-0.00398787
-0.00424689
-0.00515998
-0.00696263
-0.00907061
-0.0109198
-0.0123759
-0.0132387
-0.0133435
-0.0127436
-0.0115501
-0.00997745
-0.00826497
-0.00658838
-0.00502178
-0.00362884
-0.00247781
-0.0015856
-0.000915576
-0.000421177
-6.8404e-05
0.000168414
0.000314949
0.0003953
0.000431614
0.000437836
0.000424393
0.000400115
0.000367624
0.000329899
0.000289553
0.000249379
0.000210015
0.000170804
0.000132956
9.40501e-05
5.55483e-05
1.8321e-05
-0.00313288
-0.00364137
-0.00404804
-0.00463334
-0.00540902
-0.00669232
-0.00831067
-0.00976162
-0.0108827
-0.011541
-0.0116605
-0.011185
-0.0101937
-0.00888116
-0.00745564
-0.00605445
-0.00474234
-0.00356414
-0.00256332
-0.00175939
-0.00113901
-0.000675876
-0.000334896
-8.8368e-05
8.13089e-05
0.000189419
0.000251718
0.00028006
0.000286641
0.000281228
0.000267046
0.000246343
0.000221181
0.00019416
0.000165723
0.000136002
0.000107183
7.69513e-05
4.56926e-05
1.51765e-05
-0.00287981
-0.00340727
-0.00390511
-0.00449661
-0.00521652
-0.00620063
-0.00741388
-0.0085471
-0.00942715
-0.0099544
-0.0100694
-0.00971202
-0.00893229
-0.00789144
-0.00674472
-0.00559666
-0.00450702
-0.00351197
-0.00263864
-0.00190997
-0.00133132
-0.000887144
-0.000553663
-0.000308119
-0.000130464
-5.04508e-06
8.00755e-05
0.00013303
0.000161882
0.000174951
0.000176024
0.000169804
0.000157008
0.000140807
0.00012186
0.000100654
7.94519e-05
5.63776e-05
3.34751e-05
1.09102e-05
-0.00271102
-0.00321602
-0.00373928
-0.00432114
-0.00498199
-0.00576137
-0.00669202
-0.0075773
-0.00826066
-0.00866633
-0.00874228
-0.00847471
-0.00788374
-0.00706342
-0.0061414
-0.00520513
-0.00429453
-0.00344099
-0.00267858
-0.00202877
-0.00150039
-0.00108215
-0.000753912
-0.000499036
-0.00030643
-0.000166902
-6.8223e-05
-1.05077e-07
4.51916e-05
7.36093e-05
8.90307e-05
9.63173e-05
9.61669e-05
9.08357e-05
8.08239e-05
6.80451e-05
5.51976e-05
4.10695e-05
2.54546e-05
8.84158e-06
-0.00257155
-0.00304809
-0.00355932
-0.00410936
-0.00470284
-0.0053536
-0.00607986
-0.00676745
-0.00729857
-0.00761186
-0.00767494
-0.00747621
-0.00702381
-0.0063801
-0.0056392
-0.00486694
-0.00410022
-0.00336994
-0.00270763
-0.00212945
-0.00164054
-0.00124217
-0.000925642
-0.000677024
-0.000481999
-0.000331185
-0.000217419
-0.000134397
-7.46113e-05
-3.17252e-05
-2.47708e-06
1.67444e-05
2.7737e-05
3.28646e-05
3.40892e-05
3.18127e-05
2.70633e-05
2.03932e-05
1.27156e-05
4.17714e-06
-0.00245883
-0.00289963
-0.00337874
-0.00388806
-0.00442172
-0.00497975
-0.00556217
-0.00610412
-0.00652709
-0.00677891
-0.00683111
-0.00667635
-0.00632508
-0.00581349
-0.00520781
-0.00456685
-0.00392333
-0.00330087
-0.00272155
-0.00220388
-0.00175844
-0.00138664
-0.00108236
-0.000836012
-0.000637303
-0.000478949
-0.000354825
-0.000259269
-0.000185955
-0.000129257
-8.62358e-05
-5.38577e-05
-3.08724e-05
-1.49796e-05
-4.42186e-06
1.32007e-06
4.59267e-06
5.311e-06
3.88156e-06
1.90701e-06
-0.00235455
-0.00276307
-0.00320383
-0.0036709
-0.0041515
-0.00463645
-0.00511621
-0.0055535
-0.00589402
-0.00609529
-0.00613977
-0.00602086
-0.00574253
-0.00533404
-0.00484185
-0.00430942
-0.00376538
-0.00323118
-0.00272764
-0.00226807
-0.00186084
-0.00151203
-0.00122111
-0.000980747
-0.000781025
-0.000615443
-0.00048084
-0.000373194
-0.000287131
-0.000218529
-0.000164565
-0.00012199
-8.88228e-05
-6.31593e-05
-4.37122e-05
-2.93362e-05
-1.86479e-05
-1.10855e-05
-5.576e-06
-1.68942e-06
-0.00225728
-0.00263719
-0.00304163
-0.00346705
-0.00389966
-0.00432601
-0.00473247
-0.00509217
-0.00536943
-0.00553486
-0.00557387
-0.00548102
-0.005261
-0.00493362
-0.00453007
-0.00408435
-0.00362439
-0.0031673
-0.00272661
-0.00231749
-0.00195005
-0.0016277
-0.00134941
-0.00111252
-0.000911862
-0.000742005
-0.00060014
-0.000483734
-0.000387938
-0.000308467
-0.00024286
-0.000189468
-0.000145943
-0.000110959
-8.27471e-05
-6.04234e-05
-4.26028e-05
-2.75061e-05
-1.52832e-05
-5.13842e-06
-0.00216648
-0.00252072
-0.00289226
-0.00328015
-0.00367058
-0.00404766
-0.00439766
-0.00470051
-0.00493033
-0.00506778
-0.00510299
-0.00503181
-0.00485644
-0.00459071
-0.00426055
-0.00389072
-0.0035003
-0.00310671
-0.00272468
-0.00236379
-0.00203039
-0.00172928
-0.00146356
-0.0012331
-0.00103386
-0.000860919
-0.00071163
-0.000584892
-0.000477895
-0.000387485
-0.000311025
-0.000247045
-0.00019378
-0.00014966
-0.000113242
-8.33323e-05
-5.86616e-05
-3.85313e-05
-2.19007e-05
-7.1391e-06
-0.002082
-0.00241368
-0.00275683
-0.00311097
-0.00346372
-0.0038003
-0.00410583
-0.00436412
-0.00455908
-0.00467691
-0.00471003
-0.00465494
-0.00451434
-0.0042998
-0.0040289
-0.00372053
-0.00339157
-0.00305649
-0.00272503
-0.00240438
-0.00210254
-0.00182476
-0.00157322
-0.00134857
-0.00114923
-0.000972261
-0.000816348
-0.000681355
-0.000565238
-0.00046545
-0.000379756
-0.000306907
-0.000244996
-0.000192899
-0.000149044
-0.000111991
-8.06063e-05
-5.35431e-05
-3.04183e-05
-1.01016e-05
-0.00200423
-0.00231648
-0.00263493
-0.00295932
-0.0032798
-0.00358214
-0.00385191
-0.00407636
-0.00424416
-0.00434685
-0.00437851
-0.00433599
-0.00422318
-0.0040495
-0.00382755
-0.00357287
-0.0032986
-0.0030138
-0.00272684
-0.00244528
-0.00217425
-0.00191727
-0.0016773
-0.00145714
-0.00125764
-0.00107742
-0.000915308
-0.000771675
-0.00064554
-0.000535305
-0.000439048
-0.000355728
-0.000284103
-0.000223387
-0.000172261
-0.00012945
-9.31639e-05
-6.20814e-05
-3.50662e-05
-1.13953e-05
-0.00193328
-0.0022287
-0.00252578
-0.00282486
-0.00311752
-0.00339025
-0.00363042
-0.0038279
-0.00397493
-0.00406524
-0.00409513
-0.00406341
-0.00397313
-0.00383264
-0.00365313
-0.00344501
-0.00321773
-0.00297949
-0.00273576
-0.0024901
-0.00224645
-0.00200849
-0.00177957
-0.00156367
-0.00136333
-0.00117875
-0.00100974
-0.000857156
-0.000721258
-0.000601555
-0.000496494
-0.000405013
-0.000325593
-0.000257335
-0.000199193
-0.000149787
-0.000107936
-7.21454e-05
-4.11038e-05
-1.36097e-05
-0.00186931
-0.00215062
-0.00242983
-0.00270726
-0.00297579
-0.00322368
-0.00343976
-0.00361536
-0.00374459
-0.00382461
-0.0038525
-0.00382795
-0.00375575
-0.00364357
-0.00349969
-0.00333266
-0.00314969
-0.0029554
-0.00275193
-0.00254069
-0.00232344
-0.00210294
-0.00188316
-0.00166951
-0.00146643
-0.00127614
-0.00109964
-0.000938051
-0.00079199
-0.000661647
-0.000546089
-0.000444796
-0.000356758
-0.00028145
-0.000217281
-0.000162714
-0.000116456
-7.71543e-05
-4.34077e-05
-1.39851e-05
-0.00181219
-0.00208219
-0.00234644
-0.00260522
-0.00285276
-0.00307915
-0.00327486
-0.0034323
-0.00354715
-0.00361735
-0.00364206
-0.00362282
-0.00356454
-0.00347552
-0.00336342
-0.00323427
-0.0030928
-0.00294079
-0.00277699
-0.00259988
-0.0024086
-0.00220376
-0.00199017
-0.00177614
-0.00156841
-0.00137073
-0.00118516
-0.00101357
-0.000857033
-0.000716296
-0.00059091
-0.000480368
-0.000384383
-0.000302374
-0.000232762
-0.000173657
-0.000123841
-8.16502e-05
-4.59e-05
-1.49152e-05
-0.00176254
-0.00202357
-0.00227609
-0.0025197
-0.00274923
-0.00295621
-0.00313333
-0.00327521
-0.0033773
-0.00343805
-0.00345835
-0.00344131
-0.00339323
-0.00332362
-0.00323987
-0.00314673
-0.00304632
-0.00293656
-0.00281211
-0.00266768
-0.0025008
-0.00231065
-0.00210161
-0.00188454
-0.00166895
-0.00146072
-0.0012635
-0.0010805
-0.000913123
-0.000761582
-0.000626211
-0.000507224
-0.000403987
-0.000315764
-0.000241191
-0.000178274
-0.000125717
-8.15696e-05
-4.49573e-05
-1.39176e-05
-0.00171983
-0.00197454
-0.00221844
-0.00245044
-0.00266599
-0.00285796
-0.00301922
-0.00314577
-0.0032355
-0.00328654
-0.00330067
-0.00328288
-0.00324123
-0.00318694
-0.00312823
-0.0030694
-0.00301205
-0.00294695
-0.00286027
-0.00274351
-0.00259313
-0.00240955
-0.00220123
-0.00198113
-0.00175902
-0.00154112
-0.00133167
-0.00113583
-0.000956449
-0.000795095
-0.00065124
-0.000524858
-0.000415521
-0.000322509
-0.000244302
-0.000178653
-0.000124469
-7.9311e-05
-4.29503e-05
-1.27338e-05
-0.00168538
-0.00193585
-0.0021732
-0.00239488
-0.00259772
-0.00277683
-0.0029266
-0.00304248
-0.00312145
-0.0031623
-0.00316878
-0.00314766
-0.00310875
-0.00306556
-0.00302865
-0.00300287
-0.00298901
-0.0029735
-0.00292699
-0.00283267
-0.00268664
-0.0024955
-0.00227468
-0.0020415
-0.00180742
-0.00157953
-0.00136237
-0.00116017
-0.000975373
-0.000808677
-0.000659892
-0.000529359
-0.000416866
-0.000321465
-0.000241493
-0.000174773
-0.000120005
-7.48433e-05
-3.93241e-05
-1.06289e-05
-0.00167446
-0.00192354
-0.00215671
-0.00237325
-0.00257065
-0.00274364
-0.00288688
-0.00299644
-0.00306926
-0.00310457
-0.00310658
-0.00308261
-0.00304333
-0.00300188
-0.0029699
-0.002954
-0.00295406
-0.00295278
-0.00292184
-0.0028414
-0.0027062
-0.00252067
-0.00230028
-0.00206445
-0.00182555
-0.00159297
-0.00137172
-0.00116665
-0.000979364
-0.00081081
-0.0006607
-0.000529466
-0.000416172
-0.000320372
-0.000239732
-0.000172924
-0.000117912
-7.30433e-05
-3.79868e-05
-9.54699e-06
)
;

boundaryField
{
    inlet
    {
        type            zeroGradient;
    }
    outlet
    {
        type            fixedValue;
        value           uniform 0;
    }
    lowerWall
    {
        type            zeroGradient;
    }
    upperWall
    {
        type            zeroGradient;
    }
    defaultFaces
    {
        type            empty;
    }
}


// ************************************************************************* //
