/*--------------------------------*- C++ -*----------------------------------*\
| =========                 |                                                 |
| \\      /  F ield         | OpenFOAM: The Open Source CFD Toolbox           |
|  \\    /   O peration     | Version:  2112                                  |
|   \\  /    A nd           | Website:  www.openfoam.com                      |
|    \\/     M anipulation  |                                                 |
\*---------------------------------------------------------------------------*/
FoamFile
{
    version     2.0;
    format      ascii;
    arch        "LSB;label=32;scalar=64";
    class       surfaceScalarField;
    location    "0.47";
    object      phi;
}
// * * * * * * * * * * * * * * * * * * * * * * * * * * * * * * * * * * * * * //

dimensions      [0 3 -1 0 0 0 0];

oriented        oriented;

internalField   nonuniform List<scalar> 
3653
(
9.92211e-07
7.78925e-09
9.79368e-07
1.28423e-08
9.63739e-07
1.56297e-08
9.48363e-07
1.53758e-08
9.3172e-07
1.66431e-08
9.14972e-07
1.67483e-08
8.97203e-07
1.77689e-08
8.78939e-07
1.82636e-08
8.60998e-07
1.79415e-08
8.41408e-07
1.95895e-08
8.23603e-07
1.78049e-08
8.03113e-07
2.04898e-08
7.84131e-07
1.89822e-08
7.63571e-07
2.05599e-08
7.42287e-07
2.12839e-08
7.20615e-07
2.16724e-08
6.9799e-07
2.2625e-08
6.73068e-07
2.49226e-08
6.48024e-07
2.50439e-08
6.19974e-07
2.80498e-08
5.89375e-07
3.05991e-08
5.57326e-07
3.20493e-08
5.20485e-07
3.68406e-08
4.7797e-07
4.25145e-08
4.33948e-07
4.40223e-08
3.79726e-07
5.42219e-08
3.20187e-07
5.95395e-08
2.52428e-07
6.77589e-08
1.74744e-07
7.76844e-08
6.80862e-08
1.06657e-07
1.00155e-06
6.23918e-09
1.00636e-06
8.03155e-09
1.00823e-06
1.37577e-08
1.00999e-06
1.36181e-08
1.01091e-06
1.5719e-08
1.01139e-06
1.62702e-08
1.01063e-06
1.85287e-08
1.01147e-06
1.7428e-08
1.00805e-06
2.1362e-08
1.00824e-06
1.93965e-08
1.00383e-06
2.22149e-08
1.00213e-06
2.21939e-08
9.96704e-07
2.44048e-08
9.94241e-07
2.30225e-08
9.85247e-07
3.02784e-08
9.83227e-07
2.36928e-08
9.71246e-07
3.46058e-08
9.65571e-07
3.05976e-08
9.53346e-07
3.72689e-08
9.42956e-07
3.84396e-08
9.25965e-07
4.75897e-08
9.14878e-07
4.31371e-08
8.88603e-07
6.31156e-08
8.73559e-07
5.75576e-08
8.40991e-07
7.6591e-08
8.15659e-07
7.95536e-08
7.73232e-07
1.01966e-07
7.39546e-07
1.01445e-07
6.79637e-07
1.37593e-07
1.29595e-07
6.18129e-07
1.00132e-06
4.92214e-09
1.00469e-06
4.65433e-09
1.00749e-06
1.09613e-08
1.00954e-06
1.15727e-08
1.01163e-06
1.36208e-08
1.01332e-06
1.45874e-08
1.01442e-06
1.74282e-08
1.01737e-06
1.44758e-08
1.01655e-06
2.2184e-08
1.02016e-06
1.57893e-08
1.01838e-06
2.3987e-08
1.02061e-06
1.99713e-08
1.01924e-06
2.57694e-08
1.0203e-06
2.19666e-08
1.01723e-06
3.33454e-08
1.01892e-06
2.20062e-08
1.01337e-06
4.01507e-08
1.01346e-06
3.05044e-08
1.00896e-06
4.177e-08
1.00436e-06
4.30448e-08
9.99294e-07
5.26538e-08
9.9378e-07
4.86512e-08
9.83427e-07
7.34688e-08
9.77891e-07
6.30936e-08
9.63192e-07
9.12898e-08
9.53424e-07
8.93216e-08
9.35817e-07
1.19573e-07
9.19249e-07
1.18013e-07
8.98287e-07
1.58555e-07
1.61264e-07
8.66617e-07
1.00084e-06
4.08576e-09
1.00257e-06
2.92492e-09
1.00411e-06
9.41769e-09
1.00681e-06
8.86906e-09
1.00741e-06
1.30241e-08
1.01056e-06
1.14377e-08
1.01054e-06
1.74433e-08
1.01362e-06
1.14001e-08
1.01381e-06
2.1999e-08
1.01616e-06
1.34381e-08
1.01641e-06
2.37346e-08
1.01803e-06
1.83463e-08
1.01805e-06
2.57558e-08
1.01888e-06
2.11295e-08
1.01899e-06
3.32349e-08
1.0184e-06
2.2597e-08
1.0183e-06
4.02564e-08
1.01723e-06
3.15725e-08
1.01546e-06
4.35428e-08
1.01438e-06
4.41184e-08
1.01177e-06
5.52651e-08
1.00792e-06
5.25043e-08
1.00671e-06
7.46805e-08
1.00066e-06
6.91422e-08
9.97893e-07
9.40556e-08
9.92227e-07
9.49882e-08
9.88962e-07
1.22838e-07
9.78472e-07
1.28504e-07
9.77822e-07
1.59205e-07
1.73244e-07
9.65842e-07
1.00045e-06
3.63424e-09
1.0017e-06
1.67413e-09
1.00296e-06
8.16175e-09
1.0052e-06
6.62961e-09
1.00621e-06
1.20142e-08
1.00867e-06
8.97241e-09
1.00922e-06
1.68916e-08
1.01167e-06
8.95065e-09
1.0122e-06
2.147e-08
1.01435e-06
1.12941e-08
1.01484e-06
2.32423e-08
1.0165e-06
1.66842e-08
1.01684e-06
2.54172e-08
1.01787e-06
2.00961e-08
1.01848e-06
3.26262e-08
1.01816e-06
2.29236e-08
1.01896e-06
3.94566e-08
1.01827e-06
3.22563e-08
1.0175e-06
4.43163e-08
1.01775e-06
4.38658e-08
1.0157e-06
5.7319e-08
1.01468e-06
5.3522e-08
1.0137e-06
7.56609e-08
1.01168e-06
7.11614e-08
1.01042e-06
9.53178e-08
1.00899e-06
9.64132e-08
1.00806e-06
1.23766e-07
1.00756e-06
1.29003e-07
1.00715e-06
1.59621e-07
1.71104e-07
1.00929e-06
1.00066e-06
2.97181e-09
1.00131e-06
1.02958e-09
1.00238e-06
7.08427e-09
1.00406e-06
4.95267e-09
1.00532e-06
1.07601e-08
1.00697e-06
7.31354e-09
1.00867e-06
1.51988e-08
1.00957e-06
8.04327e-09
1.01178e-06
1.92659e-08
1.01247e-06
1.0599e-08
1.01433e-06
2.13871e-08
1.01522e-06
1.57977e-08
1.01665e-06
2.39799e-08
1.017e-06
1.97485e-08
1.01895e-06
3.06766e-08
1.0182e-06
2.3671e-08
1.02015e-06
3.75063e-08
1.01959e-06
3.2815e-08
1.02019e-06
4.37254e-08
1.02027e-06
4.37761e-08
1.02072e-06
5.68756e-08
1.01946e-06
5.47823e-08
1.02123e-06
7.3888e-08
1.01968e-06
7.27117e-08
1.02125e-06
9.37435e-08
1.02122e-06
9.64476e-08
1.0241e-06
1.20888e-07
1.02469e-06
1.28412e-07
1.02985e-06
1.54461e-07
1.66705e-07
1.03425e-06
1.00045e-06
2.51759e-09
1.00098e-06
5.06191e-10
1.00193e-06
6.12705e-09
1.0033e-06
3.58495e-09
1.00463e-06
9.43754e-09
1.00617e-06
5.77084e-09
1.00793e-06
1.34389e-08
1.00891e-06
7.06174e-09
1.01117e-06
1.70011e-08
1.01188e-06
9.8939e-09
1.01401e-06
1.92603e-08
1.01501e-06
1.47925e-08
1.01664e-06
2.23517e-08
1.01757e-06
1.88198e-08
1.01945e-06
2.87931e-08
1.01967e-06
2.34535e-08
1.02162e-06
3.55519e-08
1.02213e-06
3.23116e-08
1.02305e-06
4.28052e-08
1.02429e-06
4.25351e-08
1.02522e-06
5.59438e-08
1.0258e-06
5.42064e-08
1.02774e-06
7.19478e-08
1.0286e-06
7.18441e-08
1.03099e-06
9.13595e-08
1.03323e-06
9.42048e-08
1.03705e-06
1.17072e-07
1.04146e-06
1.23993e-07
1.04772e-06
1.48205e-07
1.58961e-07
1.05546e-06
1.00056e-06
1.95795e-09
1.00075e-06
3.1285e-10
1.0019e-06
4.97556e-09
1.00277e-06
2.72038e-09
1.00444e-06
7.76249e-09
1.00544e-06
4.77809e-09
1.00776e-06
1.11109e-08
1.00835e-06
6.47926e-09
1.01108e-06
1.42668e-08
1.0117e-06
9.27576e-09
1.01416e-06
1.67962e-08
1.01522e-06
1.37372e-08
1.01737e-06
2.01964e-08
1.01834e-06
1.78541e-08
1.02086e-06
2.62741e-08
1.02141e-06
2.29071e-08
1.02397e-06
3.29872e-08
1.02491e-06
3.13756e-08
1.02695e-06
4.07618e-08
1.02832e-06
4.11666e-08
1.03091e-06
5.33535e-08
1.03191e-06
5.32007e-08
1.03548e-06
6.83837e-08
1.03724e-06
7.00861e-08
1.0415e-06
8.70965e-08
1.04456e-06
9.11402e-08
1.0509e-06
1.10736e-07
1.05613e-06
1.18768e-07
1.06472e-06
1.39609e-07
1.50275e-07
1.07341e-06
1.00046e-06
1.49716e-09
1.00065e-06
1.21805e-10
1.00178e-06
3.84383e-09
1.00252e-06
1.98334e-09
1.00428e-06
6.00532e-09
1.00524e-06
3.81135e-09
1.00761e-06
8.7452e-09
1.00841e-06
5.68294e-09
1.01113e-06
1.15437e-08
1.01205e-06
8.35912e-09
1.01459e-06
1.42495e-08
1.01598e-06
1.23477e-08
1.01832e-06
1.78626e-08
1.01974e-06
1.64314e-08
1.02248e-06
2.35378e-08
1.02367e-06
2.17074e-08
1.02654e-06
3.01192e-08
1.02822e-06
2.97025e-08
1.03082e-06
3.81589e-08
1.033e-06
3.89868e-08
1.03626e-06
5.00937e-08
1.0385e-06
5.0955e-08
1.0427e-06
6.41858e-08
1.04583e-06
6.69537e-08
1.05114e-06
8.17866e-08
1.05574e-06
8.65435e-08
1.06296e-06
1.03518e-07
1.07013e-06
1.11596e-07
1.07986e-06
1.29875e-07
1.39778e-07
1.09036e-06
1.00047e-06
1.02801e-09
1.0006e-06
-5.27906e-12
1.00181e-06
2.62587e-09
1.00248e-06
1.32214e-09
1.00432e-06
4.15843e-09
1.00527e-06
2.86135e-09
1.00772e-06
6.30053e-09
1.00871e-06
4.69406e-09
1.01144e-06
8.80727e-09
1.01268e-06
7.12625e-09
1.01535e-06
1.15724e-08
1.01699e-06
1.07129e-08
1.01966e-06
1.51852e-08
1.02137e-06
1.47223e-08
1.02448e-06
2.04315e-08
1.02618e-06
2.0012e-08
1.02949e-06
2.68061e-08
1.03167e-06
2.75236e-08
1.03506e-06
3.4763e-08
1.03769e-06
3.63602e-08
1.04192e-06
4.58638e-08
1.04491e-06
4.79625e-08
1.05006e-06
5.9042e-08
1.05416e-06
6.28524e-08
1.06058e-06
7.53628e-08
1.06618e-06
8.09489e-08
1.0746e-06
9.50915e-08
1.08283e-06
1.03365e-07
1.09368e-06
1.19028e-07
1.28574e-07
1.10488e-06
1.00043e-06
5.96574e-10
1.00061e-06
-1.86831e-10
1.00183e-06
1.40722e-09
1.00258e-06
5.71475e-10
1.00443e-06
2.30677e-09
1.00559e-06
1.70099e-09
1.00796e-06
3.93114e-09
1.00933e-06
3.32662e-09
1.01198e-06
6.15996e-09
1.01362e-06
5.4859e-09
1.01635e-06
8.8403e-09
1.01834e-06
8.72602e-09
1.02122e-06
1.23049e-08
1.02335e-06
1.25882e-08
1.02667e-06
1.71098e-08
1.02896e-06
1.7727e-08
1.03256e-06
2.32049e-08
1.03538e-06
2.47e-08
1.03924e-06
3.09024e-08
1.04258e-06
3.30234e-08
1.04736e-06
4.10839e-08
1.05128e-06
4.40411e-08
1.05706e-06
5.3268e-08
1.06214e-06
5.77655e-08
1.06927e-06
6.82383e-08
1.07604e-06
7.41737e-08
1.08506e-06
8.6079e-08
1.09435e-06
9.40678e-08
1.10594e-06
1.07437e-07
1.16304e-07
1.11821e-06
1.0004e-06
1.93164e-10
1.00069e-06
-4.70434e-10
1.00193e-06
1.60668e-10
1.00286e-06
-3.52277e-10
1.00472e-06
4.46049e-10
1.00612e-06
3.03508e-10
1.00845e-06
1.59298e-09
1.01015e-06
1.62779e-09
1.01277e-06
3.54061e-09
1.01477e-06
3.48818e-09
1.01761e-06
6.00176e-09
1.01991e-06
6.42795e-09
1.02302e-06
9.18918e-09
1.02554e-06
1.0072e-08
1.02909e-06
1.35564e-08
1.0319e-06
1.49149e-08
1.03581e-06
1.92997e-08
1.03918e-06
2.13285e-08
1.04354e-06
2.65466e-08
1.04746e-06
2.91028e-08
1.05279e-06
3.57542e-08
1.0575e-06
3.93321e-08
1.06381e-06
4.69499e-08
1.06977e-06
5.18137e-08
1.0775e-06
6.05031e-08
1.08515e-06
6.6525e-08
1.09477e-06
7.64596e-08
1.10483e-06
8.40055e-08
1.11701e-06
9.52595e-08
1.03644e-07
1.12967e-06
1.00039e-06
-1.92935e-10
1.00084e-06
-9.2757e-10
1.00212e-06
-1.11964e-09
1.00332e-06
-1.54602e-09
1.00521e-06
-1.44711e-09
1.00691e-06
-1.39338e-09
1.00923e-06
-7.2531e-10
1.01125e-06
-3.94814e-10
1.01388e-06
9.09509e-10
1.01619e-06
1.1738e-09
1.01916e-06
3.03384e-09
1.02178e-06
3.8104e-09
1.02507e-06
5.89967e-09
1.02799e-06
7.14614e-09
1.03171e-06
9.83906e-09
1.03505e-06
1.15816e-08
1.0392e-06
1.51459e-08
1.04312e-06
1.74106e-08
1.04785e-06
2.18168e-08
1.05237e-06
2.45841e-08
1.0581e-06
3.00204e-08
1.06354e-06
3.38955e-08
1.07029e-06
4.01973e-08
1.077e-06
4.50974e-08
1.08518e-06
5.23244e-08
1.09359e-06
5.81166e-08
1.10363e-06
6.64192e-08
1.11427e-06
7.33693e-08
1.12678e-06
8.27518e-08
9.03291e-08
1.14009e-06
1.00037e-06
-5.59867e-10
1.00101e-06
-1.56832e-09
1.00238e-06
-2.49247e-09
1.00385e-06
-3.01559e-09
1.00584e-06
-3.43716e-09
1.0078e-06
-3.35582e-09
1.01019e-06
-3.11203e-09
1.0125e-06
-2.70278e-09
1.01523e-06
-1.82038e-09
1.01783e-06
-1.42623e-09
1.02098e-06
-1.1485e-10
1.02391e-06
8.72467e-10
1.02739e-06
2.42633e-09
1.0307e-06
3.83221e-09
1.0346e-06
5.93601e-09
1.03839e-06
7.79585e-09
1.04281e-06
1.07262e-08
1.04719e-06
1.30317e-08
1.05229e-06
1.67148e-08
1.05733e-06
1.9546e-08
1.06342e-06
2.39292e-08
1.06948e-06
2.78325e-08
1.07659e-06
3.30857e-08
1.08393e-06
3.77642e-08
1.0925e-06
4.37518e-08
1.10149e-06
4.91265e-08
1.11189e-06
5.60237e-08
1.12298e-06
6.22742e-08
1.13575e-06
6.99815e-08
7.69891e-08
1.14909e-06
1.00045e-06
-1.00606e-09
1.0014e-06
-2.52285e-09
1.003e-06
-4.09583e-09
1.00483e-06
-4.84568e-09
1.00699e-06
-5.59272e-09
1.00923e-06
-5.59242e-09
1.0117e-06
-5.59067e-09
1.01425e-06
-5.24363e-09
1.01711e-06
-4.68174e-09
1.01996e-06
-4.28093e-09
1.02322e-06
-3.3755e-09
1.02644e-06
-2.34907e-09
1.03007e-06
-1.19924e-09
1.0337e-06
2.00473e-10
1.03778e-06
1.86205e-09
1.04195e-06
3.62611e-09
1.04662e-06
6.05194e-09
1.05139e-06
8.25764e-09
1.0568e-06
1.13069e-08
1.0623e-06
1.4043e-08
1.0687e-06
1.75384e-08
1.07528e-06
2.12502e-08
1.08271e-06
2.56579e-08
1.09055e-06
2.99175e-08
1.09944e-06
3.48663e-08
1.10886e-06
3.96992e-08
1.1195e-06
4.53857e-08
1.13085e-06
5.09246e-08
1.14366e-06
5.71701e-08
6.31096e-08
1.15754e-06
1.00049e-06
-1.49978e-09
1.00185e-06
-3.87469e-09
1.00383e-06
-6.0797e-09
1.00606e-06
-7.07136e-09
1.00844e-06
-7.97461e-09
1.01091e-06
-8.0634e-09
1.01353e-06
-8.20931e-09
1.0163e-06
-8.01725e-09
1.01936e-06
-7.7378e-09
1.02248e-06
-7.40509e-09
1.02594e-06
-6.83908e-09
1.02944e-06
-5.84554e-09
1.03326e-06
-5.01686e-09
1.03725e-06
-3.79541e-09
1.04152e-06
-2.4076e-09
1.04601e-06
-8.62654e-10
1.05095e-06
1.11571e-09
1.05606e-06
3.14587e-09
1.06177e-06
5.59931e-09
1.06769e-06
8.12334e-09
1.07433e-06
1.08963e-08
1.0813e-06
1.42805e-08
1.089e-06
1.79565e-08
1.09727e-06
2.16528e-08
1.10645e-06
2.56812e-08
1.11621e-06
2.9935e-08
1.12704e-06
3.45584e-08
1.13863e-06
3.93371e-08
1.15142e-06
4.4379e-08
4.95701e-08
1.16496e-06
1.00089e-06
-2.39015e-09
1.00289e-06
-5.87095e-09
1.00532e-06
-8.51486e-09
1.00789e-06
-9.64367e-09
1.01048e-06
-1.05629e-08
1.01316e-06
-1.07378e-08
1.01597e-06
-1.10244e-08
1.01902e-06
-1.1068e-08
1.0223e-06
-1.10113e-08
1.02568e-06
-1.07874e-08
1.02929e-06
-1.04459e-08
1.03301e-06
-9.56561e-09
1.03698e-06
-8.99114e-09
1.04119e-06
-8.00309e-09
1.04562e-06
-6.84516e-09
1.05033e-06
-5.56661e-09
1.05545e-06
-4.00198e-09
1.06083e-06
-2.23303e-09
1.06673e-06
-3.01077e-10
1.07299e-06
1.85433e-09
1.07984e-06
4.04997e-09
1.0871e-06
7.02407e-09
1.09501e-06
1.0043e-08
1.10358e-06
1.30832e-08
1.11297e-06
1.62911e-08
1.12298e-06
1.99212e-08
1.13391e-06
2.36364e-08
1.14561e-06
2.76289e-08
1.15845e-06
3.15442e-08
3.55944e-08
1.17243e-06
1.00183e-06
-4.21621e-09
1.00526e-06
-9.3008e-09
1.00851e-06
-1.17688e-08
1.01147e-06
-1.26011e-08
1.01425e-06
-1.33479e-08
1.01721e-06
-1.36911e-08
1.02029e-06
-1.41114e-08
1.02355e-06
-1.43244e-08
1.02689e-06
-1.4354e-08
1.03027e-06
-1.41628e-08
1.03371e-06
-1.38841e-08
1.03731e-06
-1.31664e-08
1.04112e-06
-1.28017e-08
1.04515e-06
-1.20389e-08
1.0494e-06
-1.10933e-08
1.05391e-06
-1.0077e-08
1.05882e-06
-8.91475e-09
1.06406e-06
-7.46777e-09
1.06983e-06
-6.07677e-09
1.07597e-06
-4.2824e-09
1.08254e-06
-2.52311e-09
1.08972e-06
-1.53245e-10
1.09759e-06
2.17327e-09
1.10618e-06
4.49884e-09
1.11556e-06
6.90903e-09
1.12561e-06
9.87014e-09
1.13649e-06
1.27596e-08
1.14818e-06
1.59297e-08
1.16085e-06
1.88786e-08
2.19274e-08
1.17452e-06
1.00302e-06
-7.23127e-09
1.00686e-06
-1.31491e-08
1.00971e-06
-1.46203e-08
1.0119e-06
-1.47818e-08
1.01372e-06
-1.5173e-08
1.01547e-06
-1.54387e-08
1.01707e-06
-1.5713e-08
1.01847e-06
-1.57241e-08
1.01962e-06
-1.55017e-08
1.02061e-06
-1.51525e-08
1.0215e-06
-1.47786e-08
1.02254e-06
-1.42066e-08
1.02354e-06
-1.37965e-08
1.02463e-06
-1.31286e-08
1.02598e-06
-1.24445e-08
1.02764e-06
-1.17406e-08
1.0296e-06
-1.087e-08
1.03189e-06
-9.75995e-09
1.03464e-06
-8.82731e-09
1.03807e-06
-7.71474e-09
1.04206e-06
-6.51402e-09
1.04682e-06
-4.9097e-09
1.05241e-06
-3.41984e-09
1.05887e-06
-1.95683e-09
1.06627e-06
-4.89328e-10
1.07489e-06
1.24748e-09
1.08464e-06
3.00901e-09
1.09564e-06
4.92556e-09
1.10784e-06
6.68557e-09
8.2607e-09
1.1215e-06
9.92769e-07
9.7962e-07
9.64999e-07
9.50217e-07
9.35044e-07
9.19606e-07
9.03893e-07
8.88169e-07
8.72667e-07
8.57514e-07
8.42736e-07
8.28529e-07
8.14733e-07
8.01604e-07
7.89159e-07
7.77419e-07
7.66549e-07
7.56789e-07
7.47962e-07
7.40247e-07
7.33733e-07
7.28823e-07
7.25403e-07
7.23446e-07
7.22957e-07
7.24205e-07
7.27214e-07
7.32139e-07
7.38825e-07
7.47085e-07
2.31205e-07
-1.24548e-07
3.22915e-07
-9.17101e-08
4.08435e-07
-8.55198e-08
4.75404e-07
-6.69693e-08
5.3902e-07
-6.36159e-08
5.89087e-07
-5.0067e-08
6.34428e-07
-4.53405e-08
6.92771e-07
-5.83427e-08
7.47629e-07
-5.48588e-08
-1.34427e-07
8.82056e-07
6.74137e-07
-1.80556e-07
7.27679e-07
-1.45252e-07
7.72053e-07
-1.29894e-07
8.03215e-07
-9.81309e-08
8.41241e-07
-1.01642e-07
8.78231e-07
-8.70575e-08
9.13928e-07
-8.10375e-08
9.39917e-07
-8.43314e-08
9.91909e-07
-1.06851e-07
-1.73597e-07
1.03108e-06
8.7364e-07
-1.87579e-07
8.91881e-07
-1.63493e-07
9.04661e-07
-1.42674e-07
9.24863e-07
-1.18333e-07
9.24265e-07
-1.01043e-07
9.54963e-07
-1.17756e-07
9.72436e-07
-9.85109e-08
1.01287e-06
-1.2477e-07
1.02189e-06
-1.15863e-07
-2.06664e-07
1.05495e-06
9.59461e-07
-1.81198e-07
9.58791e-07
-1.62823e-07
9.613e-07
-1.45183e-07
9.75357e-07
-1.32391e-07
9.84157e-07
-1.09843e-07
9.89831e-07
-1.2343e-07
1.00786e-06
-1.16542e-07
1.03017e-06
-1.47075e-07
1.0435e-06
-1.29193e-07
-2.05446e-07
1.04228e-06
1.00072e-06
-1.72633e-07
9.99547e-07
-1.61647e-07
9.92801e-07
-1.38437e-07
1.00117e-06
-1.40764e-07
1.00533e-06
-1.13999e-07
1.01323e-06
-1.3133e-07
1.01771e-06
-1.21018e-07
1.03055e-06
-1.59917e-07
1.04511e-06
-1.43751e-07
-2.07186e-07
1.04685e-06
1.02574e-06
-1.64127e-07
1.02095e-06
-1.56857e-07
1.0196e-06
-1.37089e-07
1.02015e-06
-1.41313e-07
1.02556e-06
-1.19401e-07
1.02837e-06
-1.34143e-07
1.03497e-06
-1.27614e-07
1.03798e-06
-1.62928e-07
1.04747e-06
-1.53242e-07
-2.01275e-07
1.04156e-06
1.0468e-06
-1.55461e-07
1.04267e-06
-1.52732e-07
1.03806e-06
-1.32478e-07
1.03655e-06
-1.398e-07
1.03922e-06
-1.22067e-07
1.04141e-06
-1.36335e-07
1.0435e-06
-1.29703e-07
1.04207e-06
-1.61504e-07
1.04661e-06
-1.57781e-07
-1.95122e-07
1.04046e-06
1.06562e-06
-1.47676e-07
1.05862e-06
-1.45733e-07
1.05556e-06
-1.29413e-07
1.05169e-06
-1.35926e-07
1.05184e-06
-1.22218e-07
1.05039e-06
-1.34888e-07
1.05141e-06
-1.30727e-07
1.04635e-06
-1.56443e-07
1.04639e-06
-1.57815e-07
-1.88087e-07
1.03935e-06
1.0817e-06
-1.39015e-07
1.07449e-06
-1.38523e-07
1.0694e-06
-1.24325e-07
1.06401e-06
-1.30528e-07
1.06195e-06
-1.20162e-07
1.05845e-06
-1.3139e-07
1.05621e-06
-1.28487e-07
1.04991e-06
-1.5014e-07
1.04597e-06
-1.53878e-07
-1.79563e-07
1.03745e-06
1.09613e-06
-1.30258e-07
1.08735e-06
-1.29741e-07
1.08143e-06
-1.18405e-07
1.07469e-06
-1.23791e-07
1.07051e-06
-1.15985e-07
1.06456e-06
-1.25443e-07
1.0603e-06
-1.2422e-07
1.05235e-06
-1.42197e-07
1.04541e-06
-1.46933e-07
-1.69447e-07
1.03529e-06
1.10848e-06
-1.20524e-07
1.09908e-06
-1.20342e-07
1.09179e-06
-1.1111e-07
1.08357e-06
-1.1558e-07
1.07743e-06
-1.09838e-07
1.07012e-06
-1.18137e-07
1.06352e-06
-1.1762e-07
1.05394e-06
-1.32614e-07
1.0447e-06
-1.37693e-07
-1.5792e-07
1.03317e-06
1.11938e-06
-1.10237e-07
1.10895e-06
-1.09908e-07
1.10042e-06
-1.02584e-07
1.09112e-06
-1.06281e-07
1.08336e-06
-1.02073e-07
1.07426e-06
-1.09045e-07
1.06577e-06
-1.09128e-07
1.05507e-06
-1.21916e-07
1.04429e-06
-1.26906e-07
-1.44477e-07
1.03084e-06
1.12896e-06
-9.91108e-08
1.11781e-06
-9.87517e-08
1.10811e-06
-9.28855e-08
1.09766e-06
-9.58303e-08
1.08839e-06
-9.28038e-08
1.07808e-06
-9.87321e-08
1.068e-06
-9.90507e-08
1.05592e-06
-1.09831e-07
1.04354e-06
-1.14534e-07
-1.29693e-07
1.02876e-06
1.13733e-06
-8.73471e-08
1.1254e-06
-8.68214e-08
1.11468e-06
-8.21714e-08
1.10329e-06
-8.44328e-08
1.09268e-06
-8.22012e-08
1.08108e-06
-8.71316e-08
1.06974e-06
-8.77132e-08
1.05657e-06
-9.66547e-08
1.04297e-06
-1.00933e-07
-1.13793e-07
1.02707e-06
1.14505e-06
-7.48521e-08
1.13245e-06
-7.42187e-08
1.1208e-06
-7.05235e-08
1.10851e-06
-7.21453e-08
1.09685e-06
-7.05415e-08
1.08421e-06
-7.44877e-08
1.07164e-06
-7.51419e-08
1.05739e-06
-8.24044e-08
1.04269e-06
-8.62406e-08
-9.683e-08
1.02573e-06
1.15198e-06
-6.18694e-08
1.13877e-06
-6.10066e-08
1.12634e-06
-5.81003e-08
1.11325e-06
-5.90495e-08
1.10056e-06
-5.78548e-08
1.08688e-06
-6.08053e-08
1.07328e-06
-6.15448e-08
1.05809e-06
-6.72096e-08
1.04241e-06
-7.05675e-08
-7.9078e-08
1.02466e-06
1.15858e-06
-4.80289e-08
1.1446e-06
-4.70243e-08
1.13134e-06
-4.48404e-08
1.11737e-06
-4.50759e-08
1.10371e-06
-4.41918e-08
1.08894e-06
-4.60378e-08
1.07417e-06
-4.67768e-08
1.05781e-06
-5.08511e-08
1.041e-06
-5.37575e-08
-6.01078e-08
1.02203e-06
1.15922e-06
-3.27311e-08
1.14374e-06
-3.15425e-08
1.12882e-06
-2.99248e-08
1.11322e-06
-2.94765e-08
1.09784e-06
-2.88093e-08
1.08143e-06
-2.9624e-08
1.06502e-06
-3.03697e-08
1.04709e-06
-3.29206e-08
1.02863e-06
-3.53021e-08
-3.94974e-08
1.00802e-06
1.10267e-06
-1.39028e-08
1.08447e-06
-1.33369e-08
1.06709e-06
-1.25504e-08
1.04975e-06
-1.21305e-08
1.03274e-06
-1.17971e-08
1.01516e-06
-1.2047e-08
9.97332e-07
-1.25422e-08
9.7809e-07
-1.36788e-08
9.5787e-07
-1.50816e-08
-1.70002e-08
9.35373e-07
7.33183e-07
7.19846e-07
7.07295e-07
6.95165e-07
6.83368e-07
6.71321e-07
6.58779e-07
6.451e-07
6.30018e-07
6.13018e-07
1.30675e-07
-1.30675e-07
1.59729e-07
-2.90539e-08
1.35629e-07
2.40998e-08
1.46129e-07
-1.04998e-08
5.51675e-08
9.09611e-08
-2.30814e-07
2.85982e-07
-5.15474e-07
2.84659e-07
-7.12447e-07
1.96974e-07
-8.4736e-07
1.34913e-07
-9.18345e-07
7.09843e-08
-9.36312e-07
1.79669e-08
-9.12869e-07
-2.34426e-08
-8.58472e-07
-5.4397e-08
-7.82918e-07
-7.55543e-08
-6.90448e-07
-9.24697e-08
-5.80477e-07
-1.0997e-07
-4.54431e-07
-1.26046e-07
-3.23512e-07
-1.3092e-07
-1.89537e-07
-1.33975e-07
-5.49942e-08
-1.34542e-07
6.60139e-08
-1.21008e-07
1.72397e-07
-1.06383e-07
2.60131e-07
-8.77339e-08
3.29149e-07
-6.90177e-08
3.80042e-07
-5.08931e-08
4.14772e-07
-3.47301e-08
4.35766e-07
-2.09935e-08
4.46403e-07
-1.06378e-08
4.49546e-07
-3.14289e-09
4.47552e-07
1.99461e-09
4.40985e-07
6.56637e-09
4.30109e-07
1.08758e-08
4.14406e-07
1.57029e-08
3.95123e-07
1.92835e-08
3.73233e-07
2.18899e-08
3.51737e-07
2.14956e-08
3.31546e-07
2.01911e-08
3.15246e-07
1.62999e-08
3.01161e-07
1.40858e-08
9.48566e-09
9.75792e-08
-2.28254e-07
1.44063e-07
-7.55376e-08
1.47743e-07
2.04201e-08
-1.4579e-08
1.51822e-07
-2.78891e-07
3.55273e-07
-5.12963e-07
5.20054e-07
-6.78355e-07
4.50052e-07
-8.03378e-07
3.21997e-07
-8.83632e-07
2.15167e-07
-9.18812e-07
1.06164e-07
-9.08993e-07
8.14848e-09
-8.62142e-07
-7.02936e-08
-7.91624e-07
-1.24915e-07
-7.00275e-07
-1.66903e-07
-5.97238e-07
-1.95507e-07
-4.83889e-07
-2.23319e-07
-3.56168e-07
-2.53767e-07
-2.21695e-07
-2.65392e-07
-8.18094e-08
-2.73861e-07
5.1397e-08
-2.67749e-07
1.74473e-07
-2.44085e-07
2.82497e-07
-2.14407e-07
3.74237e-07
-1.79473e-07
4.50312e-07
-1.45093e-07
5.11458e-07
-1.12039e-07
5.5907e-07
-8.23417e-08
5.94497e-07
-5.64203e-08
6.20277e-07
-3.64179e-08
6.38628e-07
-2.14939e-08
6.52008e-07
-1.13856e-08
6.61749e-07
-3.17454e-09
6.69125e-07
3.4994e-09
6.74257e-07
1.05714e-08
6.77908e-07
1.56324e-08
6.78566e-07
2.12317e-08
6.77038e-07
2.30233e-08
6.71291e-07
2.59386e-08
6.64186e-07
2.34046e-08
6.54084e-07
2.41882e-08
1.902e-08
2.99336e-08
-2.58187e-07
-1.51461e-08
-3.04579e-08
-4.43164e-08
4.95904e-08
-1.84816e-07
2.92322e-07
-3.50089e-07
5.20545e-07
-4.86777e-07
6.56742e-07
-5.82204e-07
5.45478e-07
-6.551e-07
3.94893e-07
-7.0304e-07
2.63106e-07
-7.1688e-07
1.20004e-07
-6.95048e-07
-1.36841e-08
-6.37425e-07
-1.27916e-07
-5.60819e-07
-2.01521e-07
-4.73694e-07
-2.54028e-07
-3.75126e-07
-2.94076e-07
-2.72261e-07
-3.26184e-07
-1.60132e-07
-3.65896e-07
-3.77609e-08
-3.87763e-07
8.35973e-08
-3.95219e-07
1.98838e-07
-3.82989e-07
3.02239e-07
-3.47486e-07
3.89659e-07
-3.01827e-07
4.61963e-07
-2.51777e-07
5.2079e-07
-2.03921e-07
5.68411e-07
-1.5966e-07
6.06903e-07
-1.20834e-07
6.37024e-07
-8.65414e-08
6.59794e-07
-5.91874e-08
6.77207e-07
-3.89067e-08
6.91479e-07
-2.56576e-08
7.03931e-07
-1.56266e-08
7.15203e-07
-7.77283e-09
7.25122e-07
6.52655e-10
7.3498e-07
5.77412e-09
7.43898e-07
1.23134e-08
7.53289e-07
1.36324e-08
7.60517e-07
1.87104e-08
7.65764e-07
1.81581e-08
7.68212e-07
2.17402e-08
2.07322e-08
-9.09558e-10
-2.57278e-07
-5.77859e-08
2.64184e-08
-1.15186e-07
1.0699e-07
-2.27244e-07
4.0438e-07
-3.25086e-07
6.18387e-07
-3.88421e-07
7.20077e-07
-4.24809e-07
5.81867e-07
-4.6411e-07
4.34194e-07
-4.91057e-07
2.90054e-07
-4.94452e-07
1.23399e-07
-4.62503e-07
-4.56329e-08
-4.02055e-07
-1.88364e-07
-3.21927e-07
-2.81649e-07
-2.36637e-07
-3.39317e-07
-1.48942e-07
-3.81771e-07
-5.45588e-08
-4.20568e-07
4.59387e-08
-4.66394e-07
1.50794e-07
-4.92618e-07
2.5363e-07
-4.98055e-07
3.49229e-07
-4.78589e-07
4.33561e-07
-4.31818e-07
5.01465e-07
-3.69731e-07
5.54412e-07
-3.04723e-07
5.95091e-07
-2.446e-07
6.25959e-07
-1.90528e-07
6.50499e-07
-1.45374e-07
6.70985e-07
-1.07027e-07
6.86978e-07
-7.51803e-08
6.98606e-07
-5.05351e-08
7.07975e-07
-3.50259e-08
7.17617e-07
-2.52692e-08
7.28558e-07
-1.87134e-08
7.38889e-07
-9.67872e-09
7.48023e-07
-3.35931e-09
7.55119e-07
5.21707e-09
7.61756e-07
6.99488e-09
7.69113e-07
1.13539e-08
7.75722e-07
1.15487e-08
7.83732e-07
1.37301e-08
1.61912e-08
-7.69438e-08
-1.80334e-07
-1.72661e-07
1.22136e-07
-1.68063e-07
1.02392e-07
-1.72012e-07
4.08329e-07
-1.74717e-07
6.21091e-07
-1.77759e-07
7.2312e-07
-1.89861e-07
5.93968e-07
-2.07818e-07
4.52152e-07
-2.17793e-07
3.00028e-07
-2.12967e-07
1.18574e-07
-1.80494e-07
-7.81068e-08
-1.26448e-07
-2.4241e-07
-5.64869e-08
-3.5161e-07
1.72047e-08
-4.13009e-07
9.26849e-08
-4.57251e-07
1.73177e-07
-5.0106e-07
2.55114e-07
-5.48331e-07
3.39646e-07
-5.7715e-07
4.17573e-07
-5.75982e-07
4.82561e-07
-5.43577e-07
5.38479e-07
-4.87735e-07
5.84114e-07
-4.15366e-07
6.17813e-07
-3.38423e-07
6.42858e-07
-2.69644e-07
6.6114e-07
-2.08811e-07
6.74099e-07
-1.58333e-07
6.85359e-07
-1.18287e-07
6.96395e-07
-8.62162e-08
7.05549e-07
-5.96886e-08
7.11605e-07
-4.10824e-08
7.16857e-07
-3.05207e-08
7.24308e-07
-2.61644e-08
7.34716e-07
-2.00872e-08
7.4495e-07
-1.35934e-08
7.53248e-07
-3.08027e-09
7.57004e-07
3.23832e-09
7.59906e-07
8.45247e-09
7.61539e-07
9.91589e-09
7.65161e-07
1.01079e-08
1.07643e-08
-1.56913e-07
-2.34206e-08
-1.5711e-07
1.22332e-07
-7.50571e-08
2.03394e-08
-4.62781e-08
3.7955e-07
-1.3328e-08
5.88141e-07
3.23383e-08
6.77453e-07
6.02941e-08
5.66012e-07
7.37465e-08
4.387e-07
8.93433e-08
2.84431e-07
1.11422e-07
9.64951e-08
1.41126e-07
-1.0781e-07
1.76167e-07
-2.77451e-07
2.19666e-07
-3.95109e-07
2.71799e-07
-4.65142e-07
3.29604e-07
-5.15056e-07
3.95377e-07
-5.66833e-07
4.61689e-07
-6.14642e-07
5.235e-07
-6.38961e-07
5.75129e-07
-6.2761e-07
6.07829e-07
-5.76278e-07
6.25732e-07
-5.05638e-07
6.40544e-07
-4.30178e-07
6.52973e-07
-3.50852e-07
6.62678e-07
-2.79349e-07
6.71975e-07
-2.18108e-07
6.79876e-07
-1.66234e-07
6.86329e-07
-1.24741e-07
6.93922e-07
-9.38093e-08
7.03661e-07
-6.94279e-08
7.11845e-07
-4.92659e-08
7.17184e-07
-3.58593e-08
7.20326e-07
-2.9307e-08
7.26631e-07
-2.63922e-08
7.34764e-07
-2.17261e-08
7.44697e-07
-1.30132e-08
7.50513e-07
-2.57817e-09
7.52164e-07
6.80201e-09
7.51184e-07
1.08959e-08
7.47812e-07
1.34794e-08
9.46091e-09
-1.97852e-07
1.74432e-07
-1.21931e-07
4.64113e-08
-9.96329e-08
-1.95913e-09
1.17135e-07
1.62782e-07
2.35608e-07
4.69668e-07
3.19528e-07
5.93533e-07
3.59185e-07
5.26355e-07
3.86692e-07
4.11193e-07
4.16403e-07
2.54719e-07
4.40764e-07
7.21346e-08
4.57979e-07
-1.25026e-07
4.69478e-07
-2.88949e-07
4.83879e-07
-4.09511e-07
5.12047e-07
-4.9331e-07
5.51354e-07
-5.54364e-07
5.99373e-07
-6.14852e-07
6.49354e-07
-6.64623e-07
6.86361e-07
-6.75968e-07
7.04756e-07
-6.46006e-07
7.08249e-07
-5.79771e-07
6.97261e-07
-4.9465e-07
6.82021e-07
-4.14937e-07
6.72781e-07
-3.41612e-07
6.68674e-07
-2.75242e-07
6.69064e-07
-2.18498e-07
6.73908e-07
-1.71078e-07
6.81033e-07
-1.31865e-07
6.89142e-07
-1.01918e-07
7.00248e-07
-8.05336e-08
7.1197e-07
-6.09883e-08
7.22232e-07
-4.61213e-08
7.26525e-07
-3.36001e-08
7.29245e-07
-2.91116e-08
7.31762e-07
-2.42434e-08
7.37369e-07
-1.862e-08
7.44241e-07
-9.45069e-09
7.47797e-07
3.24572e-09
7.50114e-07
8.57926e-09
7.46681e-07
1.69125e-08
1.1045e-08
6.75953e-07
3.80535e-07
4.49353e-07
2.73012e-07
2.47418e-07
1.99976e-07
2.29186e-07
1.81014e-07
3.76218e-07
3.22636e-07
5.39191e-07
4.30561e-07
6.45551e-07
4.19995e-07
7.14625e-07
3.4212e-07
7.56918e-07
2.12426e-07
7.77242e-07
5.18103e-08
7.77785e-07
-1.25568e-07
7.68498e-07
-2.79663e-07
7.64369e-07
-4.05383e-07
7.76344e-07
-5.05285e-07
8.02588e-07
-5.80607e-07
8.28535e-07
-6.408e-07
8.45527e-07
-6.81615e-07
8.51607e-07
-6.82047e-07
8.36779e-07
-6.31179e-07
8.07228e-07
-5.5022e-07
7.76254e-07
-4.63676e-07
7.47742e-07
-3.86425e-07
7.2738e-07
-3.2125e-07
7.17526e-07
-2.65389e-07
7.15015e-07
-2.15986e-07
7.17168e-07
-1.73232e-07
7.22908e-07
-1.37605e-07
7.30825e-07
-1.09835e-07
7.42339e-07
-9.20483e-08
7.55818e-07
-7.44669e-08
7.69598e-07
-5.99015e-08
7.78333e-07
-4.23352e-08
7.81566e-07
-3.23443e-08
7.81452e-07
-2.41297e-08
7.80457e-07
-1.76247e-08
7.82939e-07
-1.19324e-08
7.86231e-07
-4.67139e-11
7.9101e-07
3.80053e-09
7.94942e-07
1.29806e-08
9.06448e-09
1.01138e-06
4.00236e-07
9.61095e-07
3.23295e-07
8.47907e-07
3.13164e-07
7.15638e-07
3.13283e-07
6.74666e-07
3.63608e-07
7.26473e-07
3.78753e-07
8.04689e-07
3.41779e-07
8.7699e-07
2.69819e-07
9.29282e-07
1.60134e-07
9.6197e-07
1.91225e-08
9.72307e-07
-1.35905e-07
9.72137e-07
-2.79492e-07
9.77122e-07
-4.10368e-07
9.91105e-07
-5.19268e-07
1.00276e-06
-5.92257e-07
9.98734e-07
-6.36779e-07
9.69801e-07
-6.52682e-07
9.24459e-07
-6.36705e-07
8.77272e-07
-5.83992e-07
8.30721e-07
-5.03669e-07
7.9025e-07
-4.23205e-07
7.63067e-07
-3.59242e-07
7.47928e-07
-3.06111e-07
7.4168e-07
-2.5914e-07
7.43136e-07
-2.17442e-07
7.50037e-07
-1.80133e-07
7.57721e-07
-1.45289e-07
7.62785e-07
-1.14898e-07
7.67464e-07
-9.67278e-08
7.74758e-07
-8.1761e-08
7.84114e-07
-6.92575e-08
7.92234e-07
-5.0455e-08
7.95919e-07
-3.60287e-08
7.96568e-07
-2.47787e-08
7.96131e-07
-1.71882e-08
7.95916e-07
-1.17171e-08
7.98229e-07
-2.35969e-09
8.00275e-07
1.7542e-09
8.04296e-07
8.95965e-09
4.32617e-09
1.08816e-06
3.67032e-07
1.0806e-06
3.30855e-07
1.05782e-06
3.35938e-07
1.04147e-06
3.29638e-07
1.04166e-06
3.63414e-07
1.05903e-06
3.61383e-07
1.09142e-06
3.09393e-07
1.12897e-06
2.32263e-07
1.15988e-06
1.29227e-07
1.18141e-06
-2.40991e-09
1.19587e-06
-1.50365e-07
1.19824e-06
-2.81862e-07
1.19107e-06
-4.03196e-07
1.17829e-06
-5.06486e-07
1.15463e-06
-5.68593e-07
1.10727e-06
-5.8942e-07
1.03849e-06
-5.83907e-07
9.5906e-07
-5.57272e-07
8.89167e-07
-5.14099e-07
8.44265e-07
-4.58767e-07
8.17229e-07
-3.9617e-07
7.99663e-07
-3.41676e-07
7.89979e-07
-2.96427e-07
7.8436e-07
-2.53521e-07
7.8019e-07
-2.13273e-07
7.81359e-07
-1.81302e-07
7.89136e-07
-1.53066e-07
7.96953e-07
-1.22715e-07
7.98869e-07
-9.86441e-08
7.97547e-07
-8.0439e-08
7.97696e-07
-6.94067e-08
7.99013e-07
-5.17726e-08
7.99474e-07
-3.64895e-08
7.97121e-07
-2.24259e-08
7.96785e-07
-1.6852e-08
7.99971e-07
-1.4903e-08
8.06017e-07
-8.40555e-09
8.13863e-07
-6.09224e-09
8.17697e-07
5.12609e-09
3.59405e-09
1.07818e-06
3.31136e-07
1.10458e-06
3.0445e-07
1.12546e-06
3.15054e-07
1.14397e-06
3.11132e-07
1.18323e-06
3.24151e-07
1.2266e-06
3.18013e-07
1.27163e-06
2.64369e-07
1.3093e-06
1.94585e-07
1.33291e-06
1.05621e-07
1.34918e-06
-1.86746e-08
1.35021e-06
-1.51397e-07
1.33517e-06
-2.66826e-07
1.30451e-06
-3.72533e-07
1.25573e-06
-4.57702e-07
1.19157e-06
-5.04437e-07
1.11664e-06
-5.14492e-07
1.03738e-06
-5.04642e-07
9.66465e-07
-4.86361e-07
9.09334e-07