/*--------------------------------*- C++ -*----------------------------------*\
| =========                 |                                                 |
| \\      /  F ield         | OpenFOAM: The Open Source CFD Toolbox           |
|  \\    /   O peration     | Version:  2112                                  |
|   \\  /    A nd           | Website:  www.openfoam.com                      |
|    \\/     M anipulation  |                                                 |
\*---------------------------------------------------------------------------*/
FoamFile
{
    version     2.0;
    format      ascii;
    arch        "LSB;label=32;scalar=64";
    class       volVectorField;
    location    "0.47";
    object      U;
}
// * * * * * * * * * * * * * * * * * * * * * * * * * * * * * * * * * * * * * //

dimensions      [0 1 -1 0 0 0 0];

internalField   nonuniform List<vector> 
1880
(
(0.0989127 0.000558215 0)
(0.0984887 0.00118979 0)
(0.0972131 0.00126459 0)
(0.0959738 0.0013853 0)
(0.0940039 0.00131568 0)
(0.0925179 0.00142953 0)
(0.0904793 0.00139448 0)
(0.0889038 0.00147166 0)
(0.0868907 0.00141014 0)
(0.085233 0.00145022 0)
(0.0831354 0.00139491 0)
(0.0815054 0.00145514 0)
(0.0791543 0.00137445 0)
(0.0776742 0.00145434 0)
(0.0749318 0.00143361 0)
(0.0736198 0.00149123 0)
(0.0704064 0.00148107 0)
(0.0691885 0.00158589 0)
(0.0654331 0.00159744 0)
(0.0641238 0.00181004 0)
(0.0598341 0.00177317 0)
(0.0580934 0.00205929 0)
(0.0533775 0.00215242 0)
(0.0505629 0.00256351 0)
(0.045394 0.00266354 0)
(0.0411048 0.00311668 0)
(0.035182 0.00367888 0)
(0.0286468 0.00390036 0)
(0.0222996 0.0046933 0)
(0.011933 0.00274033 0)
(0.100194 0.00084502 0)
(0.0998549 0.00124851 0)
(0.101072 0.00178167 0)
(0.100461 0.00163581 0)
(0.101529 0.00194995 0)
(0.100816 0.00185948 0)
(0.101507 0.00209561 0)
(0.100759 0.00213532 0)
(0.101393 0.00212963 0)
(0.100353 0.00243199 0)
(0.101084 0.00212217 0)
(0.0998808 0.00259823 0)
(0.1003 0.00237723 0)
(0.0993129 0.00261329 0)
(0.0992266 0.00277546 0)
(0.0980866 0.00279506 0)
(0.0983585 0.00299465 0)
(0.0959679 0.00334092 0)
(0.0971196 0.00335627 0)
(0.0935483 0.00374412 0)
(0.0949037 0.0042648 0)
(0.0906004 0.00432047 0)
(0.0919901 0.00512479 0)
(0.0860734 0.00590603 0)
(0.0884404 0.00605256 0)
(0.079988 0.0077131 0)
(0.0831298 0.00816258 0)
(0.0715299 0.00972852 0)
(0.0765945 0.0110131 0)
(0.0582498 0.0112083 0)
(0.100286 0.000501838 0)
(0.0998525 0.000437788 0)
(0.100806 0.0010434 0)
(0.100512 0.00114313 0)
(0.101317 0.00125284 0)
(0.101072 0.00144554 0)
(0.101666 0.00166339 0)
(0.101319 0.00139111 0)
(0.102105 0.00218565 0)
(0.101307 0.00148634 0)
(0.10254 0.0023571 0)
(0.101299 0.00188261 0)
(0.102588 0.00253421 0)
(0.1015 0.00202183 0)
(0.102297 0.00330956 0)
(0.101352 0.00196149 0)
(0.102297 0.0039501 0)
(0.100381 0.00276467 0)
(0.102379 0.00408306 0)
(0.099294 0.00389554 0)
(0.101642 0.00521448 0)
(0.0982488 0.00420874 0)
(0.100422 0.00740554 0)
(0.0963587 0.00546477 0)
(0.0993309 0.00910101 0)
(0.0932759 0.00800396 0)
(0.097584 0.011971 0)
(0.089673 0.010298 0)
(0.0941092 0.0161561 0)
(0.0853095 0.014344 0)
(0.100251 0.000434939 0)
(0.0998554 0.000446492 0)
(0.100489 0.00108196 0)
(0.100287 0.00111781 0)
(0.100897 0.00141969 0)
(0.100646 0.00142772 0)
(0.101362 0.00177858 0)
(0.100871 0.00146191 0)
(0.101768 0.00221019 0)
(0.101105 0.00162881 0)
(0.102022 0.00240705 0)
(0.101308 0.00206757 0)
(0.102235 0.00259148 0)
(0.101407 0.00233185 0)
(0.102327 0.00332397 0)
(0.10146 0.00240626 0)
(0.102274 0.00402858 0)
(0.10125 0.00329752 0)
(0.102353 0.0042162 0)
(0.100554 0.0046528 0)
(0.102482 0.00525058 0)
(0.0997874 0.0054561 0)
(0.101855 0.00719819 0)
(0.0994794 0.00707531 0)
(0.100866 0.00906199 0)
(0.098501 0.0097146 0)
(0.100338 0.0118554 0)
(0.0972172 0.0131261 0)
(0.0987317 0.0153523 0)
(0.096386 0.0175743 0)
(0.100093 0.000412854 0)
(0.099971 0.000164163 0)
(0.100278 0.000844055 0)
(0.100313 0.00069032 0)
(0.100595 0.00122403 0)
(0.100662 0.000895601 0)
(0.100946 0.00174503 0)
(0.100993 0.000849602 0)
(0.101252 0.00222017 0)
(0.101314 0.00108894 0)
(0.101454 0.00236586 0)
(0.10157 0.00163196 0)
(0.10167 0.00258255 0)
(0.101721 0.00191993 0)
(0.101828 0.00334574 0)
(0.10184 0.00213379 0)
(0.101853 0.00404185 0)
(0.101851 0.00304365 0)
(0.101869 0.00448895 0)
(0.101598 0.00421043 0)
(0.101982 0.00578487 0)
(0.101215 0.00507328 0)
(0.101691 0.0077168 0)
(0.101209 0.00677014 0)
(0.101166 0.00968146 0)
(0.101062 0.00935391 0)
(0.100852 0.0126046 0)
(0.100935 0.0125569 0)
(0.100633 0.0163457 0)
(0.100779 0.0169385 0)
(0.100039 0.000302988 0)
(0.100064 0.000159647 0)
(0.100142 0.000761737 0)
(0.100343 0.00060986 0)
(0.100419 0.00114838 0)
(0.1006 0.000870583 0)
(0.100741 0.00160597 0)
(0.100951 0.00091672 0)
(0.100987 0.00204616 0)
(0.101363 0.00114622 0)
(0.101171 0.00225491 0)
(0.101614 0.0016816 0)
(0.101494 0.00247316 0)
(0.101749 0.00207894 0)
(0.101716 0.00314944 0)
(0.101974 0.0024279 0)
(0.101794 0.00382239 0)
(0.102105 0.00337134 0)
(0.101936 0.00435475 0)
(0.102008 0.00451906 0)
(0.102164 0.00564493 0)
(0.101935 0.00558922 0)
(0.10203 0.00737443 0)
(0.102234 0.00739729 0)
(0.101894 0.00936371 0)
(0.102278 0.00984208 0)
(0.102211 0.0121183 0)
(0.102565 0.0131709 0)
(0.10256 0.0155334 0)
(0.103127 0.0171768 0)
(0.100016 0.000297487 0)
(0.100062 5.23842e-05 0)
(0.100085 0.00066942 0)
(0.100329 0.000393723 0)
(0.10031 0.00101854 0)
(0.100584 0.000607414 0)
(0.100604 0.00145119 0)
(0.100917 0.000707332 0)
(0.100885 0.0018266 0)
(0.10133 0.000988675 0)
(0.101096 0.0020389 0)
(0.101629 0.00149258 0)
(0.101439 0.00233494 0)
(0.101825 0.00188476 0)
(0.101725 0.00299449 0)
(0.102112 0.00232094 0)
(0.101897 0.00367559 0)
(0.102375 0.00321067 0)
(0.102101 0.00437313 0)
(0.102504 0.00424952 0)
(0.102428 0.00571332 0)
(0.102641 0.00537551 0)
(0.102561 0.00737151 0)
(0.103101 0.0071654 0)
(0.102745 0.00933518 0)
(0.10352 0.00946974 0)
(0.103325 0.0120307 0)
(0.104149 0.012518 0)
(0.104269 0.0153039 0)
(0.105145 0.0162146 0)
(0.100006 0.00020994 0)
(0.100083 4.66839e-05 0)
(0.100062 0.000552788 0)
(0.100299 0.00031676 0)
(0.100295 0.000858299 0)
(0.100519 0.000536422 0)
(0.100588 0.00122194 0)
(0.100849 0.000694797 0)
(0.100875 0.00155785 0)
(0.101284 0.000978864 0)
(0.101134 0.00179744 0)
(0.101604 0.0014515 0)
(0.101531 0.00212008 0)
(0.101866 0.00186187 0)
(0.101867 0.00274808 0)
(0.102229 0.00235005 0)
(0.102154 0.00341683 0)
(0.102569 0.00322582 0)
(0.102486 0.00416747 0)
(0.102871 0.00423124 0)
(0.102905 0.00544897 0)
(0.103242 0.00543229 0)
(0.103243 0.00699743 0)
(0.103854 0.00715726 0)
(0.103789 0.00892099 0)
(0.104463 0.00933888 0)
(0.104662 0.0113656 0)
(0.105471 0.0122517 0)
(0.10592 0.0143788 0)
(0.106804 0.0155791 0)
(0.10001 0.000179523 0)
(0.10007 1.72989e-05 0)
(0.100052 0.000443579 0)
(0.100275 0.000228598 0)
(0.100279 0.000692283 0)
(0.100498 0.000418514 0)
(0.100589 0.000999478 0)
(0.100812 0.000600301 0)
(0.10092 0.00129562 0)
(0.101256 0.000878971 0)
(0.101216 0.00155804 0)
(0.101629 0.00129947 0)
(0.101642 0.00191276 0)
(0.101964 0.00170909 0)
(0.102038 0.0025002 0)
(0.102395 0.00222631 0)
(0.102431 0.00316989 0)
(0.10283 0.00304387 0)
(0.10287 0.00397067 0)
(0.103286 0.00399208 0)
(0.103417 0.00520194 0)
(0.103828 0.00519911 0)
(0.103964 0.00665376 0)
(0.104608 0.00685382 0)
(0.104746 0.00847441 0)
(0.105474 0.00887952 0)
(0.105861 0.0107654 0)
(0.106742 0.0115262 0)
(0.107399 0.0135346 0)
(0.108427 0.0145178 0)
(0.100007 0.000122223 0)
(0.100067 6.61585e-06 0)
(0.100068 0.000322988 0)
(0.100244 0.000167432 0)
(0.100308 0.000504659 0)
(0.100475 0.000341756 0)
(0.100624 0.000743383 0)
(0.100808 0.000532743 0)
(0.100974 0.00100887 0)
(0.10127 0.000786922 0)
(0.101322 0.00128753 0)
(0.101679 0.00116261 0)
(0.101797 0.00165253 0)
(0.102082 0.00156916 0)
(0.10225 0.00219673 0)
(0.102585 0.00210435 0)
(0.102744 0.00284292 0)
(0.103108 0.00288169 0)
(0.103287 0.00364737 0)
(0.103713 0.00378811 0)
(0.103947 0.00480167 0)
(0.104408 0.00497102 0)
(0.104685 0.00616913 0)
(0.105328 0.00651637 0)
(0.105695 0.00786791 0)
(0.106403 0.00841793 0)
(0.106996 0.00994231 0)
(0.107915 0.0108005 0)
(0.108764 0.0124768 0)
(0.109815 0.0134818 0)
(0.100006 8.15384e-05 0)
(0.100064 -7.75573e-06 0)
(0.100075 0.000201967 0)
(0.100232 9.54737e-05 0)
(0.100328 0.000324629 0)
(0.100482 0.000227461 0)
(0.100672 0.000511579 0)
(0.100831 0.000402457 0)
(0.101053 0.000745362 0)
(0.101322 0.000633425 0)
(0.101439 0.001019 0)
(0.10178 0.000971971 0)
(0.101959 0.00137633 0)
(0.102241 0.00136518 0)
(0.102479 0.0018792 0)
(0.10281 0.00188808 0)
(0.103065 0.0025041 0)
(0.103425 0.0026115 0)
(0.1037 0.00328963 0)
(0.104157 0.00346902 0)
(0.104481 0.0043543 0)
(0.104974 0.00460574 0)
(0.105388 0.00562054 0)
(0.106045 0.00604047 0)
(0.106561 0.00719171 0)
(0.107302 0.00777039 0)
(0.108037 0.0090807 0)
(0.109001 0.00989387 0)
(0.109963 0.0113548 0)
(0.111107 0.0122656 0)
(0.100004 3.80003e-05 0)
(0.100059 -2.96656e-05 0)
(0.100098 7.81756e-05 0)
(0.100228 2.01144e-05 0)
(0.100365 0.000139374 0)
(0.100511 0.000115878 0)
(0.100729 0.00027991 0)
(0.100893 0.000267026 0)
(0.101141 0.000493202 0)
(0.101407 0.000468903 0)
(0.101577 0.000755396 0)
(0.101902 0.000778872 0)
(0.102147 0.00108949 0)
(0.102424 0.00115784 0)
(0.102723 0.00154639 0)
(0.103065 0.0016592 0)
(0.103393 0.00213992 0)
(0.103761 0.00232721 0)
(0.104117 0.00288979 0)
(0.104606 0.00313195 0)
(0.105009 0.00385948 0)
(0.105532 0.0041973 0)
(0.106064 0.00502957 0)
(0.106735 0.00550904 0)
(0.107376 0.00645769 0)
(0.108151 0.00707575 0)
(0.108989 0.00815691 0)
(0.109995 0.00894551 0)
(0.111056 0.010169 0)
(0.112231 0.011044 0)
(0.100002 -6.25326e-07 0)
(0.10006 -6.67059e-05 0)
(0.100118 -4.75224e-05 0)
(0.100246 -9.3037e-05 0)
(0.100411 -5.31284e-05 0)
(0.100568 -5.77706e-05 0)
(0.100811 3.24472e-05 0)
(0.100987 5.23742e-05 0)
(0.101255 0.000206047 0)
(0.101532 0.000219877 0)
(0.101734 0.000434689 0)
(0.102065 0.000496223 0)
(0.102356 0.000737256 0)
(0.102636 0.000845903 0)
(0.102988 0.00115209 0)
(0.103347 0.0013122 0)
(0.103727 0.00170634 0)
(0.104121 0.00192459 0)
(0.104537 0.00240572 0)
(0.105058 0.00267404 0)
(0.105534 0.00327756 0)
(0.106078 0.00365683 0)
(0.106707 0.00434636 0)
(0.10741 0.00484248 0)
(0.108131 0.00563629 0)
(0.108945 0.00623375 0)
(0.109862 0.00714497 0)
(0.110907 0.00787304 0)
(0.112028 0.00890605 0)
(0.113246 0.00970353 0)
(0.100001 -3.73456e-05 0)
(0.100059 -0.000115591 0)
(0.100142 -0.00017145 0)
(0.100271 -0.000208864 0)
(0.100463 -0.000228335 0)
(0.100642 -0.000212779 0)
(0.100901 -0.000171462 0)
(0.101105 -0.000127119 0)
(0.101387 -1.79238e-05 0)
(0.101678 2.16733e-05 0)
(0.101917 0.000181861 0)
(0.102251 0.000276061 0)
(0.102587 0.000453567 0)
(0.102881 0.000593901 0)
(0.103271 0.000827206 0)
(0.103659 0.00101447 0)
(0.104079 0.00133354 0)
(0.104499 0.00156743 0)
(0.104971 0.00196683 0)
(0.105519 0.00225218 0)
(0.106057 0.00273622 0)
(0.106625 0.00313248 0)
(0.10733 0.0037028 0)
(0.108064 0.00418962 0)
(0.108844 0.00484474 0)
(0.109697 0.0054088 0)
(0.110676 0.00616353 0)
(0.111747 0.00682864 0)
(0.112918 0.00767734 0)
(0.114151 0.00840844 0)
(0.100001 -7.9553e-05 0)
(0.100068 -0.000207417 0)
(0.100185 -0.000339559 0)
(0.100337 -0.000408584 0)
(0.100561 -0.0004747 0)
(0.100772 -0.000474 0)
(0.10105 -0.000466237 0)
(0.10128 -0.000427637 0)
(0.101575 -0.000357779 0)
(0.101878 -0.000316943 0)
(0.102145 -0.00020749 0)
(0.102483 -0.000108421 0)
(0.102853 2.12132e-05 0)
(0.103159 0.000160775 0)
(0.103583 0.000346494 0)
(0.103996 0.000530508 0)
(0.104448 0.000797061 0)
(0.104894 0.00102391 0)
(0.105416 0.00136116 0)
(0.10598 0.00164231 0)
(0.106577 0.00203454 0)
(0.107169 0.00242008 0)
(0.10793 0.00290056 0)
(0.108695 0.00335155 0)
(0.109522 0.00389853 0)
(0.110402 0.00441166 0)
(0.111435 0.00504024 0)
(0.112519 0.00563492 0)
(0.113729 0.0063323 0)
(0.114975 0.00697509 0)
(0.100003 -0.000113348 0)
(0.100077 -0.000281044 0)
(0.100235 -0.000457009 0)
(0.10042 -0.000535256 0)
(0.100687 -0.000617376 0)
(0.100934 -0.00061935 0)
(0.101235 -0.000627811 0)
(0.101486 -0.000598608 0)
(0.101803 -0.000557554 0)
(0.10211 -0.000519355 0)
(0.102417 -0.000450451 0)
(0.102757 -0.000347459 0)
(0.103167 -0.000251603 0)
(0.103491 -0.000117136 0)
(0.103952 3.58493e-05 0)
(0.104383 0.000207246 0)
(0.104874 0.000427882 0)
(0.105332 0.000643038 0)
(0.105912 0.000916125 0)
(0.106482 0.00118275 0)
(0.107137 0.00149029 0)
(0.107743 0.00184776 0)
(0.108555 0.00224975 0)
(0.109331 0.00265163 0)
(0.110214 0.00309571 0)
(0.111105 0.00354843 0)
(0.112198 0.0040578 0)
(0.113267 0.00457462 0)
(0.114515 0.00513328 0)
(0.115733 0.00569395 0)
(0.100009 -0.000207466 0)
(0.100111 -0.000526586 0)
(0.100344 -0.000795758 0)
(0.100575 -0.000914974 0)
(0.100896 -0.00101289 0)
(0.101165 -0.00102687 0)
(0.101494 -0.00104687 0)
(0.101747 -0.00103613 0)
(0.102101 -0.00101979 0)
(0.102398 -0.000989774 0)
(0.102755 -0.000943676 0)
(0.103086 -0.000845912 0)
(0.103542 -0.000773983 0)
(0.103865 -0.000660666 0)
(0.104371 -0.000531897 0)
(0.104791 -0.00038815 0)
(0.105331 -0.000213681 0)
(0.105775 -2.77894e-05 0)
(0.106423 0.000186455 0)
(0.106969 0.000423513 0)
(0.107695 0.000669529 0)
(0.108293 0.000986764 0)
(0.109167 0.00131964 0)
(0.109913 0.00165935 0)
(0.110877 0.00202354 0)
(0.111742 0.00242234 0)
(0.112918 0.00283851 0)
(0.113935 0.0032778 0)
(0.115264 0.00371808 0)
(0.116427 0.00417712 0)
(0.100006 -0.00023485 0)
(0.100213 -0.00059212 0)
(0.100584 -0.000848061 0)
(0.100925 -0.000960897 0)
(0.101309 -0.00105239 0)
(0.101605 -0.00107854 0)
(0.101941 -0.00111725 0)
(0.102193 -0.0011374 0)
(0.102557 -0.00114366 0)
(0.102839 -0.00113109 0)
(0.103212 -0.00111108 0)
(0.10352 -0.00103498 0)
(0.103969 -0.000993366 0)
(0.104279 -0.000911281 0)
(0.104768 -0.000810412 0)
(0.105153 -0.000700801 0)
(0.105679 -0.000566082 0)
(0.106101 -0.000403742 0)
(0.106746 -0.000241375 0)
(0.10726 -4.06472e-05 0)
(0.107985 0.000157514 0)
(0.108556 0.00043949 0)
(0.109434 0.000711911 0)
(0.110146 0.000978851 0)
(0.111153 0.00125528 0)
(0.111989 0.00158433 0)
(0.113196 0.00191517 0)
(0.114164 0.00228054 0)
(0.115535 0.00263155 0)
(0.11666 0.00299429 0)
(0.0999817 -0.000692072 0)
(0.10034 -0.00135609 0)
(0.100717 -0.00157304 0)
(0.101093 -0.00161635 0)
(0.101331 -0.00167428 0)
(0.101552 -0.001713 0)
(0.101661 -0.00175361 0)
(0.101811 -0.00177272 0)
(0.101903 -0.00177018 0)
(0.102027 -0.00174224 0)
(0.102086 -0.00170625 0)
(0.102228 -0.00163866 0)
(0.10231 -0.00160692 0)
(0.102429 -0.00153576 0)
(0.10252 -0.00144666 0)
(0.102713 -0.00135217 0)
(0.102849 -0.00125383 0)
(0.103095 -0.00112448 0)
(0.103316 -0.00100486 0)
(0.103651 -0.00084132 0)
(0.103992 -0.000682305 0)
(0.104465 -0.000475201 0)
(0.104964 -0.000294921 0)
(0.105569 -0.000101698 0)
(0.106245 9.87742e-05 0)
(0.107053 0.000355928 0)
(0.107985 0.000597521 0)
(0.109015 0.000858831 0)
(0.110184 0.00108967 0)
(0.111428 0.00132652 0)
(0.099014 -0.000603581 0)
(0.0984634 -0.00114247 0)
(0.097424 -0.00127695 0)
(0.0960196 -0.00128602 0)
(0.0943657 -0.00129868 0)
(0.0927865 -0.00131284 0)
(0.0911476 -0.00133394 0)
(0.0896085 -0.00132534 0)
(0.0880177 -0.00129023 0)
(0.0865394 -0.00125359 0)
(0.0849909 -0.00121585 0)
(0.0835986 -0.00116793 0)
(0.0821339 -0.00111803 0)
(0.0808401 -0.00105726 0)
(0.0794973 -0.00101065 0)
(0.0783641 -0.000965161 0)
(0.0771426 -0.0008909 0)
(0.0762019 -0.000799681 0)
(0.0751766 -0.000734747 0)
(0.0744532 -0.000678682 0)
(0.0736169 -0.000598701 0)
(0.0731764 -0.000486899 0)
(0.0726203 -0.000374968 0)
(0.0725018 -0.000281968 0)
(0.07221 -0.000193312 0)
(0.0724221 -0.000100602 0)
(0.0724474 1.51155e-05 0)
(0.0730457 0.00014347 0)
(0.073423 0.000271813 0)
(0.0744176 0.000359258 0)
(0.00987863 -0.000652183 0)
(0.0382707 0.0130664 0)
(0.0283589 0.0102515 0)
(0.0600954 0.0237053 8.20677e-22)
(0.0440718 0.01961 6.69484e-22)
(0.0791552 0.0326499 0)
(0.0574019 0.0268126 2.49869e-22)
(0.0981188 0.0399374 1.87426e-23)
(0.0728071 0.033952 6.95657e-22)
(0.123526 0.0430216 0)
(0.0665512 0.0128574 0)
(0.070581 0.0198379 0)
(0.0798645 0.0231292 0)
(0.0859037 0.0312957 0)
(0.0899732 0.0302783 0)
(0.100802 0.0417538 1.71314e-22)
(0.103355 0.0394356 4.24423e-23)
(0.116813 0.0490877 -8.7471e-23)
(0.116869 0.0438159 -5.24888e-22)
(0.137887 0.0518312 -4.73103e-22)
(0.0876257 0.0196924 0)
(0.0894475 0.0220564 0)
(0.0954978 0.0288351 0)
(0.0991266 0.0316049 0)
(0.10363 0.0357022 0)
(0.107979 0.0341622 -1.71313e-22)
(0.114066 0.041335 -4.24417e-23)
(0.123588 0.0415903 8.74697e-23)
(0.127909 0.0438272 2.73968e-22)
(0.138694 0.0373605 4.73114e-22)
(0.0963868 0.0207447 -3.60122e-22)
(0.0982375 0.0243035 0)
(0.101219 0.0254757 -2.90159e-22)
(0.104804 0.0303979 -2.41029e-22)
(0.109772 0.0338189 -1.6888e-22)
(0.1135 0.0351037 0)
(0.117657 0.0362773 0)
(0.125806 0.0378957 1.33619e-22)
(0.131497 0.0417758 2.72042e-22)
(0.138978 0.0371155 4.1934e-22)
(0.100386 0.0212123 3.60123e-22)
(0.102868 0.0227426 0)
(0.105127 0.0270112 2.9016e-22)
(0.10817 0.0274598 2.4103e-22)
(0.112187 0.0320729 1.6888e-22)
(0.116553 0.031363 0)
(0.12038 0.0345961 0)
(0.126635 0.0325432 -1.3362e-22)
(0.131951 0.0366022 -2.72042e-22)
(0.139292 0.0318677 -4.19343e-22)
(0.103326 0.0201865 0)
(0.10508 0.0221195 -2.61372e-22)
(0.107949 0.0244955 0)
(0.110839 0.0256095 -1.68878e-22)
(0.114351 0.0292314 0)
(0.118566 0.0294524 0)
(0.122457 0.0311727 0)
(0.127686 0.0295144 -1.53652e-22)
(0.13285 0.0326516 0)
(0.138514 0.0293329 0)
(0.105396 0.0194984 2.56773e-22)
(0.10759 0.0202318 4.91736e-22)
(0.110068 0.0235495 1.8917e-22)
(0.112947 0.0236176 1.68879e-22)
(0.11601 0.0266482 0)
(0.120293 0.0264062 -1.51288e-23)
(0.124059 0.0286102 0)
(0.128563 0.0264658 1.53653e-22)
(0.133068 0.0286705 0)
(0.138244 0.0261126 0)
(0.107524 0.0180978 -2.56774e-22)
(0.109431 0.0190441 -2.30364e-22)
(0.111896 0.021397 -1.8917e-22)
(0.114906 0.021683 0)
(0.117757 0.0241334 0)
(0.121484 0.0239988 1.51288e-23)
(0.125197 0.0255205 0)
(0.12931 0.0239541 0)
(0.133255 0.0252399 0)
(0.13789 0.02343 0)
(0.109247 0.0168799 0)
(0.111219 0.0173663 -1.79901e-22)
(0.113568 0.0196577 0)
(0.116394 0.0197835 -9.74101e-23)
(0.119124 0.0217326 0)
(0.122631 0.0214312 0)
(0.126068 0.0228546 8.2441e-23)
(0.12988 0.021546 1.617e-22)
(0.13352 0.0222628 0)
(0.137549 0.0205805 3.32757e-22)
(0.110851 0.0153633 0)
(0.112725 0.0159161 1.79901e-22)
(0.114958 0.0177037 0)
(0.117702 0.0178133 9.74102e-23)
(0.120365 0.0194175 0)
(0.123501 0.019224 0)
(0.126746 0.0201901 -8.24411e-23)
(0.130307 0.0191057 -1.617e-22)
(0.13363 0.0195463 0)
(0.137198 0.0181352 -3.32758e-22)
(0.112233 0.0138939 8.372e-23)
(0.114054 0.0142864 0)
(0.116233 0.0158317 0)
(0.118805 0.0159355 3.35217e-23)
(0.121336 0.0171808 0)
(0.124278 0.016944 0)
(0.127349 0.0177742 0)
(0.130619 0.0169019 -8.0593e-23)
(0.133662 0.0170978 0)
(0.136904 0.0156806 0)
(0.113455 0.0123646 -7.70513e-24)
(0.115219 0.0127474 0)
(0.117289 0.0139797 4.74062e-23)
(0.119729 0.0140719 -5.75673e-24)
(0.12219 0.0150904 0)
(0.124918 0.0148939 0)
(0.127763 0.0154758 -4.79294e-23)
(0.130813 0.0147188 8.05931e-23)
(0.133699 0.01483 -1.13637e-22)
(0.13665 0.0135634 -1.4872e-22)
(0.114538 0.0107976 -6.57536e-24)
(0.116252 0.0111248 0)
(0.11825 0.0121463 -5.66434e-24)
(0.120551 0.0122325 -4.74822e-24)
(0.122898 0.0130083 2.0073e-24)
(0.125481 0.0128326 2.18887e-23)
(0.128163 0.0133193 -9.69607e-25)
(0.130988 0.0126521 -7.88561e-23)
(0.133669 0.0126473 3.09798e-24)
(0.136381 0.011511 5.09566e-24)
(0.115486 0.00930036 -6.94398e-23)
(0.117153 0.00960073 0)
(0.119069 0.0104185 -4.17419e-23)
(0.121257 0.0105029 -2.30169e-23)
(0.123508 0.0111286 -2.00731e-24)
(0.125939 0.0109653 -4.57643e-23)
(0.12846 0.0113097 4.88991e-23)
(0.131112 0.0107473 7.88562e-23)
(0.133633 0.0107109 1.1054e-22)
(0.136158 0.0097075 1.43625e-22)
(0.116358 0.00770074 0)
(0.117987 0.00796976 0)
(0.119841 0.00863163 0)
(0.121912 0.00871259 0)
(0.124074 0.00918717 0)
(0.126391 0.00905197 2.38757e-23)
(0.128771 0.00931404 0)
(0.131238 0.00883108 0)
(0.133623 0.00874049 0)
(0.135987 0.00789042 0)
(0.11716 0.00627913 0)
(0.118725 0.00652135 0)
(0.120547 0.00704737 0)
(0.122496 0.00712789 0)
(0.124595 0.00749905 0)
(0.126762 0.00738698 1.31749e-23)
(0.129041 0.00756601 0)
(0.131337 0.00717154 0)
(0.133612 0.00706737 0)
(0.135814 0.00635111 0)
(0.117952 0.00463837 0)
(0.119385 0.00485142 0)
(0.121234 0.0052654 1.35511e-23)
(0.12298 0.00535275 0)
(0.125077 0.00563579 -3.38484e-24)
(0.127017 0.00555581 -1.3175e-23)
(0.129256 0.00567487 0)
(0.131278 0.00535466 -3.68931e-23)
(0.133499 0.0052324 0)
(0.135438 0.00465267 0)
(0.118263 0.00333668 0)
(0.119331 0.00351057 0)
(0.121226 0.0038096 -1.35511e-23)
(0.122533 0.00389445 0)
(0.124664 0.00409852 3.38485e-24)
(0.126117 0.00405322 0)
(0.128381 0.00411598 0)
(0.129874 0.00387225 3.68933e-23)
(0.132119 0.00373914 0)
(0.133496 0.00328365 0)
(0.112858 0.00153436 -6.01851e-24)
(0.113238 0.001667 -4.61109e-24)
(0.114969 0.00187399 -2.97896e-24)
(0.115548 0.00197416 0)
(0.117594 0.00211448 1.03288e-24)
(0.118294 0.00210389 0)
(0.120518 0.00211823 6.05374e-24)
(0.121155 0.00195827 0)
(0.123365 0.00183978 1.20421e-23)
(0.123728 0.00155048 1.536e-23)
(0.0751267 0.000401027 6.01783e-24)
(0.0752477 0.000390126 4.61052e-24)
(0.0762788 0.000385501 2.97857e-24)
(0.0765583 0.000377881 0)
(0.0778693 0.000384195 -1.03273e-24)
(0.0782054 0.0003682 0)
(0.0796821 0.000341901 -6.05275e-24)
(0.0798748 0.000286288 0)
(0.0813202 0.000206962 -1.20399e-23)
(0.0810638 9.81385e-05 -1.53571e-23)
(0.0111227 -0.00717924 0)
(0.0244765 -0.00177042 0)
(0.0206319 0.00833542 0)
(0.0178655 -0.000172964 0)
(0.0225947 0.000768323 0)
(-0.00618386 0.0148634 0)
(-0.0588262 0.0182497 0)
(-0.0887025 0.0117423 0)
(-0.113277 0.00860221 0)
(-0.124957 0.0048751 0)
(-0.130982 0.00230141 0)
(-0.129573 0.000121692 0)
(-0.124082 -0.00157671 0)
(-0.115158 -0.00272698 0)
(-0.10264 -0.00376528 0)
(-0.089787 -0.00467631 0)
(-0.0718233 -0.00535199 0)
(-0.0543337 -0.00573612 0)
(-0.0362408 -0.00557086 0)
(-0.0165016 -0.00580078 0)
(0.000944302 -0.00492808 0)
(0.0171734 -0.00415559 0)
(0.0306345 -0.00315737 0)
(0.0416518 -0.00217652 0)
(0.0500227 -0.00126598 0)
(0.056029 -0.000486874 0)
(0.0599169 0.000131062 0)
(0.0621109 0.000562573 0)
(0.0629858 0.000830196 0)
(0.0630331 0.0010317 0)
(0.0624053 0.0012524 0)
(0.0611838 0.00151838 0)
(0.0592725 0.00175607 0)
(0.0567499 0.00184938 0)
(0.0538009 0.00173806 0)
(0.050656 0.00143662 0)
(0.0477996 0.00105171 0)
(0.0450596 0.000678966 0)
(0.0432947 0.000415692 0)
(0.0409903 0.000197241 0)
(0.013063 -0.0194039 0)
(0.0135341 -0.0038882 0)
(0.0262941 -0.00378524 0)
(0.0159895 -0.00170083 0)
(-0.0197827 0.0181056 0)
(-0.0571622 0.0409593 0)
(-0.0874072 0.0370485 0)
(-0.10587 0.0262967 0)
(-0.12131 0.0174527 0)
(-0.127354 0.00875874 0)
(-0.128513 0.00107794 0)
(-0.124505 -0.00504254 0)
(-0.114868 -0.00960969 0)
(-0.105717 -0.012732 0)
(-0.0890919 -0.0150297 0)
(-0.0772938 -0.0176433 0)
(-0.0575581 -0.0202211 0)
(-0.0410983 -0.0206725 0)
(-0.0208736 -0.0213828 0)
(-0.00178894 -0.0210749 0)
(0.0159746 -0.0191558 0)
(0.032318 -0.0169397 0)
(0.0461769 -0.0142 0)
(0.0579591 -0.0114477 0)
(0.0675649 -0.00875784 0)
(0.0752317 -0.00633807 0)
(0.0811083 -0.0042453 0)
(0.0853779 -0.00263812 0)
(0.0884278 -0.00143412 0)
(0.090545 -0.000614106 0)
(0.0921577 9.16476e-05 0)
(0.0932378 0.000689663 0)
(0.0941445 0.00137506 0)
(0.094633 0.0019618 0)
(0.095109 0.00256729 0)
(0.0948711 0.00277723 0)
(0.0947116 0.00290409 0)
(0.0933015 0.00251606 0)
(0.0927762 0.00235692 0)
(0.0903606 0.00168253 0)
(0.0106735 -0.0276333 0)
(-0.00283762 -0.0121136 0)
(-0.000990432 0.00763796 0)
(-0.0119897 0.030531 0)
(-0.0380268 0.051217 0)
(-0.0607415 0.0622659 0)
(-0.0776232 0.0513945 0)
(-0.0877927 0.0367468 0)
(-0.097447 0.0245031 0)
(-0.100702 0.0117529 0)
(-0.0989486 0.000367764 0)
(-0.0940395 -0.00951939 0)
(-0.0826381 -0.0159187 0)
(-0.0732716 -0.0211414 0)
(-0.0588003 -0.0247106 0)
(-0.0455415 -0.027636 0)
(-0.0302779 -0.0311538 0)
(-0.0138435 -0.0330466 0)
(0.0033944 -0.0339163 0)
(0.0200822 -0.0329742 0)
(0.0352469 -0.0300528 0)
(0.048659 -0.0262849 0)
(0.0597327 -0.0219958 0)
(0.0689192 -0.0178355 0)
(0.0763203 -0.0138767 0)
(0.0824137 -0.0103167 0)
(0.0873127 -0.00718381 0)
(0.0910634 -0.00475414 0)
(0.0937891 -0.00294358 0)
(0.0959513 -0.00172076 0)
(0.0977801 -0.000757008 0)
(0.099422 -2.20921e-05 0)
(0.100874 0.000691046 0)
(0.102167 0.00116405 0)
(0.103607 0.00173632 0)
(0.104693 0.00191814 0)
(0.106241 0.00239234 0)
(0.106742 0.00226369 0)
(0.107772 0.00256559 0)
(0.107369 0.00216532 0)
(0.00633575 -0.0219608 0)
(-0.00668134 0.00679225 0)
(-0.0088155 0.00291883 0)
(-0.0227222 0.0302681 0)
(-0.0393087 0.0538508 0)
(-0.0537304 0.0668962 0)
(-0.0567367 0.0559221 0)
(-0.063518 0.0411361 0)
(-0.0680427 0.0273195 0)
(-0.0707121 0.0117805 0)
(-0.0669134 -0.00324203 0)
(-0.0610526 -0.0163924 0)
(-0.0500317 -0.0248522 0)
(-0.0392145 -0.0302536 0)
(-0.0268809 -0.0345789 0)
(-0.0145017 -0.0381297 0)
(-0.00062295 -0.0426053 0)
(0.0139036 -0.0450472 0)
(0.0286661 -0.0456883 0)
(0.0423727 -0.0440578 0)
(0.0549189 -0.0398142 0)
(0.0656414 -0.0343956 0)
(0.073962 -0.0286289 0)
(0.0805474 -0.0231619 0)
(0.085495 -0.0182103 0)
(0.089354 -0.0139506 0)
(0.0925596 -0.0101784 0)
(0.0952775 -0.0070927 0)
(0.0971576 -0.00481359 0)
(0.0985462 -0.00337022 0)
(0.0997712 -0.00232854 0)
(0.101227 -0.00150303 0)
(0.102809 -0.000551051 0)
(0.104085 1.48324e-06 0)
(0.105355 0.000702375 0)
(0.10609 0.000762776 0)
(0.107231 0.001289 0)
(0.108171 0.00131167 0)
(0.109101 0.00172856 0)
(0.110395 0.00195276 0)
(-0.00375017 -0.0321113 0)
(-0.0190546 -0.00239883 0)
(-0.0271556 0.0171367 0)
(-0.0211343 0.0477066 0)
(-0.0249205 0.0691886 0)
(-0.0261156 0.0779688 0)
(-0.0247268 0.0613727 0)
(-0.029106 0.045 0)
(-0.0301729 0.029677 0)
(-0.0317538 0.0120893 0)
(-0.0275566 -0.00644482 0)
(-0.0218761 -0.0222608 0)
(-0.0126302 -0.0324135 0)
(-0.00275186 -0.0383324 0)
(0.00751471 -0.0425328 0)
(0.0185795 -0.0467806 0)
(0.0302817 -0.0514545 0)
(0.042039 -0.0542464 0)
(0.0536456 -0.0546211 0)
(0.0632041 -0.0523449 0)
(0.071276 -0.0471833 0)
(0.0786061 -0.0400925 0)
(0.0840994 -0.0327714 0)
(0.0881683 -0.0261435 0)
(0.0912694 -0.0202162 0)
(0.0934466 -0.0153817 0)
(0.0950565 -0.0114232 0)
(0.0967443 -0.00808478 0)
(0.0982618 -0.00539589 0)
(0.0993341 -0.00371563 0)
(0.0999535 -0.00279199 0)
(0.100795 -0.00229477 0)
(0.102038 -0.001423 0)
(0.103695 -0.000692077 0)
(0.104909 0.000320217 0)
(0.106016 0.0006257 0)
(0.105968 0.000983753 0)
(0.106866 0.0010082 0)
(0.106423 0.00103401 0)
(0.107892 0.00129743 0)
(-0.0187955 -0.00136933 0)
(-0.0272054 0.0290924 0)
(-0.0144736 0.00527212 0)
(-0.00723812 0.0371008 0)
(-0.00484698 0.0561335 0)
(0.000565664 0.0670975 0)
(0.00795122 0.0564106 0)
(0.00868512 0.0445847 0)
(0.0113281 0.0298017 0)
(0.0130686 0.0113747 0)
(0.0181813 -0.00942151 0)
(0.0223543 -0.0267251 0)
(0.0280867 -0.0384877 0)
(0.0342701 -0.0449597 0)
(0.0416083 -0.049528 0)
(0.050779 -0.0540251 0)
(0.0605978 -0.058772 0)
(0.0697472 -0.0617805 0)
(0.0775336 -0.0611033 0)
(0.0833271 -0.0568002 0)
(0.0860823 -0.050822 0)
(0.0881935 -0.0434833 0)
(0.0903259 -0.0353831 0)
(0.091839 -0.0281615 0)
(0.0931964 -0.0218182 0)
(0.0945727 -0.0164726 0)
(0.0955295 -0.0123579 0)
(0.0964779 -0.00923561 0)
(0.0977549 -0.0065831 0)
(0.0992476 -0.00450588 0)
(0.100066 -0.00329288 0)
(0.100751 -0.00290885 0)
(0.100958 -0.00256211 0)
(0.10251 -0.00199885 0)
(0.103223 -0.000925747 0)
(0.105311 3.01362e-05 0)
(0.104855 0.000710435 0)
(0.105813 0.000970737 0)
(0.104554 0.000978379 0)
(0.104887 0.00084691 0)
(-0.0629352 -0.00390707 0)
(0.00461624 -0.00716844 0)
(-0.0366853 -0.00223444 0)
(0.00964301 0.0360254 0)
(0.0244288 0.0628415 0)
(0.0390839 0.0700813 0)
(0.0486722 0.0580933 0)
(0.0510757 0.0435548 0)
(0.0558142 0.0264554 0)
(0.0596578 0.00746326 0)
(0.0640855 -0.0126144 0)
(0.0659372 -0.0292374 0)
(0.0672636 -0.0408755 0)
(0.0693742 -0.0484739 0)
(0.0740244 -0.0538791 0)
(0.0805801 -0.0596483 0)
(0.0881501 -0.0643773 0)
(0.0948802 -0.0661092 0)
(0.0979051 -0.0646174 0)
(0.0990483 -0.058714 0)
(0.0984048 -0.0504492 0)
(0.0959512 -0.0426138 0)
(0.0942252 -0.0348998 0)
(0.0935219 -0.0278796 0)
(0.0932373 -0.0219717 0)
(0.0937374 -0.0169008 0)
(0.0946824 -0.0126663 0)
(0.0957996 -0.0095663 0)
(0.0970421 -0.00732345 0)
(0.098955 -0.005364 0)
(0.100358 -0.00389514 0)
(0.101845 -0.00297202 0)
(0.101574 -0.00274271 0)
(0.102629 -0.00237616 0)
(0.102263 -0.00170129 0)
(0.104235 -0.000550819 0)
(0.104159 0.000637299 0)
(0.105282 0.00119537 0)
(0.104778 0.00170659 0)
(0.104329 0.00103977 0)
(0.104453 0.0376177 0)
(0.0812113 0.0185866 0)
(0.04138 0.00229429 0)
(0.0245378 -0.0020683 0)
(0.0366413 0.0299999 0)
(0.0615545 0.0493281 0)
(0.0801577 0.0487066 0)
(0.0906542 0.0402806 0)
(0.0982689 0.0258502 0)
(0.102477 0.00771964 0)
(0.104997 -0.0114202 0)
(0.104325 -0.0274061 0)
(0.102617 -0.0401264 0)
(0.102579 -0.0498955 0)
(0.105052 -0.0570518 0)
(0.109527 -0.0632078 0)
(0.11251 -0.0683205 0)
(0.114139 -0.0687859 0)
(0.113321 -0.0642383 0)
(0.109255 -0.0571871 0)
(0.10508 -0.0486276 0)
(0.101122 -0.0403896 0)
(0.0976286 -0.0332283 0)
(0.0957811 -0.0268911 0)
(0.0951024 -0.0214737 0)
(0.0951928 -0.0171455 0)
(0.0957577 -0.0136243 0)
(0.0967884 -0.0107752 0)
(0.0979539 -0.00875558 0)
(0.0999052 -0.00681051 0)
(0.101575 -0.00531737 0)
(0.103614 -0.00373132 0)
(0.103918 -0.00305745 0)
(0.104525 -0.00244191 0)
(0.103844 -0.00200039 0)
(0.104312 -0.00134343 0)
(0.104469 -7.71407e-07 0)
(0.105231 0.000493801 0)
(0.105728 0.00166687 0)
(0.106274 0.00117194 0)
(0.13674 0.042053 0)
(0.134946 0.0333532 0)
(0.120749 0.034251 0)
(0.108204 0.0356445 0)
(0.0862983 0.0357906 0)
(0.0898478 0.0378129 0)
(0.101414 0.0353032 0)
(0.111883 0.0287638 0)
(0.120454 0.0173925 0)
(0.126331 0.00301313 0)
(0.130248 -0.0132496 0)
(0.13072 -0.0283535 0)
(0.130503 -0.0412429 0)
(0.131686 -0.0514447 0)
(0.133546 -0.0590918 0)
(0.134671 -0.0646174 0)
(0.132852 -0.067443 0)
(0.126649 -0.0671328 0)
(0.119851 -0.061708 0)
(0.113504 -0.0526179 0)
(0.107242 -0.043863 0)
(0.102776 -0.0368113 0)
(0.100147 -0.031038 0)
(0.0988168 -0.0261722 0)
(0.0985414 -0.0216401 0)
(0.0992703 -0.017355 0)
(0.100435 -0.0137409 0)
(0.101366 -0.0110977 0)
(0.101876 -0.00964744 0)