/*--------------------------------*- C++ -*----------------------------------*\
| =========                 |                                                 |
| \\      /  F ield         | OpenFOAM: The Open Source CFD Toolbox           |
|  \\    /   O peration     | Version:  2112                                  |
|   \\  /    A nd           | Website:  www.openfoam.com                      |
|    \\/     M anipulation  |                                                 |
\*---------------------------------------------------------------------------*/
FoamFile
{
    version     2.0;
    format      ascii;
    arch        "LSB;label=32;scalar=64";
    class       volScalarField;
    location    "0.41";
    object      nut;
}
// * * * * * * * * * * * * * * * * * * * * * * * * * * * * * * * * * * * * * //

dimensions      [0 2 -1 0 0 0 0];

internalField   nonuniform List<scalar> 
1880
(
3.54713e-11
3.67239e-12
5.33074e-13
4.15718e-14
1.24753e-14
1.80166e-13
1.64654e-14
2.6088e-14
5.90537e-15
4.2544e-15
6.67e-15
2.67023e-15
1.29031e-14
3.15755e-14
1.73101e-13
1.68051e-13
7.60656e-14
1.33369e-13
2.0691e-13
1.42977e-12
1.17089e-12
5.84196e-13
3.97925e-12
5.3801e-12
2.98768e-11
2.51158e-11
5.46651e-11
1.54843e-10
5.07667e-11
1.06113e-10
6.02898e-09
6.35047e-09
6.93402e-10
4.62017e-10
3.53325e-11
2.10914e-11
1.14368e-11
3.11419e-12
5.42785e-12
5.84738e-13
1.00551e-11
2.5627e-12
7.51844e-11
1.84606e-11
1.02975e-10
2.96624e-11
6.25633e-11
1.7673e-10
6.13529e-11
1.44309e-10
1.76752e-10
3.85984e-11
2.77338e-10
4.25184e-10
1.89791e-10
9.19266e-10
1.49895e-09
5.28975e-10
2.96492e-09
1.03794e-09
3.85399e-09
5.91896e-10
2.94566e-09
1.4803e-11
1.68412e-09
6.58019e-10
3.97792e-10
1.1429e-09
9.09964e-10
1.2077e-10
1.01098e-09
3.17851e-09
7.17608e-10
3.65671e-09
1.47725e-09
1.15501e-09
3.77807e-09
3.76221e-09
1.08342e-09
7.09738e-09
1.21049e-09
1.15767e-09
1.0239e-08
1.55408e-09
5.22387e-09
1.25868e-08
2.51791e-09
9.0916e-09
1.82551e-08
1.26744e-08
1.84747e-10
1.56256e-09
1.14287e-08
1.35778e-09
7.36118e-10
2.98427e-10
3.45746e-09
1.0073e-09
1.81869e-08
1.86824e-09
7.45967e-09
1.84955e-09
5.52721e-09
1.93471e-09
2.37548e-08
1.60139e-09
3.5932e-08
3.62256e-09
3.75329e-10
7.19685e-09
4.33266e-09
7.05609e-09
7.16279e-09
8.91535e-09
1.36061e-08
1.63873e-08
1.70111e-08
1.71162e-08
2.34171e-08
3.12023e-08
1.04029e-09
8.73359e-10
3.01183e-09
4.97979e-10
4.94537e-10
9.30189e-10
1.97496e-10
2.63918e-09
5.52823e-09
2.83688e-09
7.63979e-10
3.8695e-09
2.2391e-09
5.08824e-09
3.22673e-08
3.73046e-09
3.48559e-08
4.26039e-09
1.56833e-08
5.70182e-09
1.19506e-10
6.49175e-09
3.11778e-09
9.02007e-09
6.26855e-09
1.63502e-08
9.87714e-09
1.93585e-08
2.00287e-08
2.89597e-08
3.92619e-10
2.49769e-09
6.28195e-10
2.06006e-10
3.8934e-10
2.00478e-10
6.6588e-10
2.39166e-10
1.27422e-09
7.33831e-10
8.1644e-11
2.578e-11
7.94091e-10
9.74017e-10
2.89398e-10
3.24867e-09
1.63671e-10
4.17713e-09
3.54323e-09
4.72297e-09
4.17714e-09
7.61666e-09
7.31166e-09
1.02963e-08
9.16507e-09
1.22614e-08
1.28079e-08
1.61087e-08
1.91717e-08
2.17268e-08
8.68914e-10
1.97383e-09
1.36014e-09
7.7211e-11
9.04422e-10
2.07536e-10
9.02269e-10
8.4902e-10
3.97915e-10
5.95134e-10
8.5645e-10
2.70066e-10
1.77553e-09
7.49822e-10
2.79009e-09
1.54804e-09
2.42597e-09
2.72052e-09
4.17127e-09
3.84055e-09
5.04205e-09
5.31435e-09
7.45514e-09
8.02907e-09
8.70904e-09
1.18364e-08
1.22742e-08
1.47854e-08
1.70925e-08
1.98288e-08
6.04964e-10
1.76004e-09
8.9893e-10
1.93935e-11
1.32139e-09
1.43414e-10
1.43838e-09
5.7169e-10
1.39757e-09
1.9991e-09
2.43851e-09
9.06153e-10
3.01501e-09
2.63873e-09
4.03575e-09
3.22668e-09
3.86161e-09
4.16185e-09
5.36536e-09
4.8523e-09
6.09487e-09
6.26444e-09
8.45875e-09
8.29825e-09
9.80096e-09
1.11234e-08
1.34363e-08
1.42453e-08
1.79143e-08
1.74598e-08
3.90657e-10
8.72216e-10
4.31586e-10
2.88493e-10
1.11528e-09
4.59899e-10
1.74845e-09
7.33297e-10
2.24414e-09
2.49537e-09
3.32717e-09
1.8217e-09
3.43515e-09
2.69244e-09
4.0897e-09
2.51644e-09
3.9958e-09
4.0635e-09
5.33645e-09
4.95876e-09
6.32155e-09
6.26419e-09
8.05274e-09
8.40953e-09
9.53507e-09
1.08866e-08
1.28348e-08
1.35879e-08
1.64015e-08
1.71507e-08
3.08018e-10
6.59315e-10
6.671e-10
4.33661e-10
1.45195e-09
8.53671e-10
1.90474e-09
1.50076e-09
2.82969e-09
3.27143e-09
3.45707e-09
2.21313e-09
3.47168e-09
3.15225e-09
4.24282e-09
3.22569e-09
4.37528e-09
4.6133e-09
5.68133e-09
5.33318e-09
6.62623e-09
6.68417e-09
8.25468e-09
8.53131e-09
9.89863e-09
1.07909e-08
1.29383e-08
1.33861e-08
1.61797e-08
1.61902e-08
1.31524e-10
4.36863e-10
7.54093e-10
8.48126e-10
1.42474e-09
1.23162e-09
2.02704e-09
1.95285e-09
2.77851e-09
3.65274e-09
3.09637e-09
2.51032e-09
3.17242e-09
3.13881e-09
3.85352e-09
3.46205e-09
4.41434e-09
4.99462e-09
5.60532e-09
5.56032e-09
6.61508e-09
6.86615e-09
8.02931e-09
8.639e-09
9.81564e-09
1.06547e-08
1.24325e-08
1.30324e-08
1.52312e-08
1.58164e-08
1.18191e-10
5.39034e-10
9.4643e-10
1.07649e-09
1.64691e-09
1.5634e-09
2.19297e-09
2.08769e-09
2.96827e-09
3.13135e-09
3.23018e-09
2.63433e-09
3.37377e-09
3.32184e-09
4.12813e-09
3.76736e-09
4.73244e-09
5.00706e-09
5.85122e-09
5.67306e-09
6.78872e-09
7.09296e-09
8.1802e-09
8.65965e-09
9.95445e-09
1.05735e-08
1.22146e-08
1.27857e-08
1.47646e-08
1.53443e-08
1.16329e-10
5.84335e-10
1.00454e-09
1.15746e-09
1.59249e-09
1.74676e-09
2.17072e-09
2.29682e-09
2.54972e-09
3.18445e-09
2.86472e-09
2.84419e-09
3.4144e-09
3.56768e-09
3.94508e-09
4.09595e-09
4.77895e-09
5.29488e-09
5.57051e-09
5.85469e-09
6.90362e-09
7.29286e-09
8.0758e-09
8.74009e-09
9.82168e-09
1.04994e-08
1.17478e-08
1.25126e-08
1.40828e-08
1.49189e-08
4.76667e-11
5.96457e-10
9.8715e-10
1.29775e-09
1.7486e-09
1.85454e-09
2.27072e-09
2.29874e-09
2.67334e-09
2.91893e-09
3.06438e-09
3.19665e-09
3.57593e-09
3.72296e-09
4.27595e-09
4.28863e-09
5.03246e-09
5.28268e-09
5.85501e-09
6.07528e-09
7.03313e-09
7.43438e-09
8.29585e-09
8.79177e-09
9.88674e-09
1.04558e-08
1.15837e-08
1.23564e-08
1.37566e-08
1.45834e-08
1.42043e-11
1.71098e-10
7.03158e-10
1.01276e-09
1.41294e-09
1.87294e-09
2.13087e-09
2.23123e-09
2.25376e-09
2.81219e-09
2.8152e-09
3.07268e-09
3.56767e-09
3.75593e-09
4.01146e-09
4.37612e-09
5.00995e-09
5.36347e-09
5.54956e-09
6.12114e-09
7.1104e-09
7.46483e-09
8.1044e-09
8.7962e-09
9.70693e-09
1.0332e-08
1.11819e-08
1.20236e-08
1.32509e-08
1.41256e-08
5.32863e-11
1.03856e-09
1.18628e-09
1.39792e-09
1.60085e-09
1.84286e-09
2.0441e-09
2.24171e-09
2.4609e-09
2.71858e-09
2.92458e-09
3.33962e-09
3.5387e-09
3.77789e-09
4.13042e-09
4.4429e-09
5.0219e-09
5.39484e-09
5.76027e-09
6.30434e-09
7.02855e-09
7.47859e-09
8.29047e-09
8.84701e-09
9.71536e-09
1.03022e-08
1.11006e-08
1.18813e-08
1.29799e-08
1.38634e-08
7.95986e-12
6.15221e-13
2.1232e-10
7.98779e-10
1.03886e-09
1.35704e-09
1.39107e-09
1.3803e-09
1.51719e-09
2.15873e-09
2.25439e-09
2.73428e-09
3.33321e-09
3.61736e-09
3.71094e-09
4.39073e-09
4.91161e-09
5.26977e-09
5.54492e-09
6.27756e-09
6.9691e-09
7.27617e-09
7.8386e-09
8.58427e-09
9.33746e-09
9.90323e-09
1.06362e-08
1.13802e-08
1.2342e-08
1.31605e-08
2.00261e-09
2.73589e-09
1.62045e-09
1.59222e-09
1.88243e-09
2.32449e-09
3.03189e-09
3.6208e-09
3.3999e-09
2.83962e-09
1.76738e-09
1.23386e-09
6.33058e-10
4.65154e-10
1.78252e-10
5.71795e-11
1.31433e-11
1.47447e-11
9.37611e-12
9.84994e-13
8.60184e-14
4.48154e-13
3.65612e-12
9.85663e-13
9.96347e-12
5.67377e-11
9.73241e-11
1.82705e-10
2.73535e-10
5.84601e-10
5.04288e-09
5.49449e-09
9.91439e-10
1.7363e-10
2.75138e-11
3.45952e-12
7.44154e-13
6.57949e-14
2.38056e-13
8.25578e-13
5.91591e-13
8.20835e-13
1.20025e-12
7.06079e-13
1.74265e-12
3.0162e-12
2.64827e-12
2.07076e-12
3.16355e-12
6.1527e-12
6.84181e-12
5.84595e-12
6.83308e-12
7.01487e-12
6.47874e-12
6.94555e-12
7.79301e-12
7.43374e-12
5.70371e-12
3.28085e-12
3.4602e-11
4.5916e-12
2.55217e-13
1.20184e-14
6.3898e-14
2.60857e-14
3.52259e-15
7.44992e-16
2.78457e-16
4.29837e-16
1.98535e-16
1.19178e-15
3.19094e-15
3.29701e-15
1.3606e-15
1.97473e-15
5.66234e-15
2.39868e-14
3.00666e-14
1.15113e-14
3.82482e-15
1.8615e-14
8.33568e-14
1.38587e-13
9.42084e-14
3.76163e-14
1.25077e-14
1.26575e-14
2.19046e-14
2.58934e-14
4.74463e-09
4.51651e-10
6.18767e-10
2.42818e-10
8.57383e-12
5.5404e-11
3.04348e-12
2.88587e-11
2.96713e-10
1.53026e-09
4.40234e-09
1.93877e-08
7.0989e-09
1.03833e-08
2.52335e-09
3.06614e-08
5.16813e-10
1.53954e-08
2.62007e-09
2.11284e-08
1.09706e-08
2.86667e-08
4.47381e-08
3.21787e-08
4.12634e-09
6.75773e-08
5.62573e-08
1.83246e-08
2.26276e-08
8.25169e-08
4.66654e-08
1.48421e-08
3.90637e-08
4.57106e-08
2.57561e-08
2.75723e-08
3.92587e-08
4.84004e-08
7.92015e-09
3.91346e-08
3.40209e-08
3.07928e-08
3.3613e-08
3.63504e-08
3.17007e-08
2.51415e-08
3.82611e-08
4.51638e-08
3.58985e-08
3.67067e-08
3.66057e-08
2.42923e-08
2.84629e-08
3.21888e-08
3.15222e-08
2.81204e-08
3.44348e-08
3.95441e-08
3.55815e-08
2.85076e-08
2.85379e-08
2.47207e-08
2.57518e-08
2.70431e-08
2.93177e-08
2.87776e-08
3.06839e-08
3.5908e-08
3.47214e-08
2.48242e-08
2.96068e-08
2.21719e-08
2.44863e-08
2.64541e-08
2.77341e-08
2.74819e-08
2.8141e-08
3.19603e-08
3.2685e-08
2.49458e-08
2.42803e-08
2.12153e-08
2.30482e-08
2.39138e-08
2.51433e-08
2.60228e-08
2.67937e-08
2.94181e-08
2.91397e-08
2.36752e-08
2.30787e-08
1.97434e-08
2.17315e-08
2.29192e-08
2.3463e-08
2.40487e-08
2.53328e-08
2.68841e-08
2.57225e-08
2.24079e-08
2.0236e-08
1.88144e-08
2.05443e-08
2.1308e-08
2.2002e-08
2.28845e-08
2.32221e-08
2.4374e-08
2.37593e-08
2.09932e-08
1.89447e-08
1.78277e-08
1.94808e-08
2.02613e-08
2.0615e-08
2.13389e-08
2.19215e-08
2.23111e-08
2.12435e-08
1.93424e-08
1.73277e-08
1.69971e-08
1.84286e-08
1.91974e-08
1.95062e-08
2.0134e-08
2.01708e-08
2.04028e-08
1.96896e-08
1.79726e-08
1.66108e-08
1.63525e-08
1.76026e-08
1.81519e-08
1.84221e-08
1.8882e-08
1.89781e-08
1.86771e-08
1.8054e-08
1.67273e-08
1.54327e-08
1.56236e-08
1.67037e-08
1.73334e-08
1.7446e-08
1.77557e-08
1.75696e-08
1.72941e-08
1.66495e-08
1.54089e-08
1.52155e-08
1.52216e-08
1.61214e-08
1.64692e-08
1.66594e-08
1.6781e-08
1.66181e-08
1.62003e-08
1.56619e-08
1.46726e-08
1.39827e-08
1.41594e-08
1.51362e-08
1.5394e-08
1.56815e-08
1.55001e-08
1.55017e-08
1.47479e-08
1.45038e-08
1.29237e-08
9.67274e-10
6.20135e-10
1.2311e-09
1.11108e-09
1.78885e-09
1.63153e-09
2.27315e-09
1.94942e-09
2.2882e-09
1.69259e-09
2.50084e-12
2.73517e-12
9.11328e-13
8.27026e-13
2.97461e-14
9.58127e-13
2.25918e-12
6.54292e-12
1.007e-11
1.1945e-11
7.25624e-14
3.71957e-14
2.56366e-14
1.30911e-15
5.81024e-16
1.14187e-14
3.00783e-14
7.22242e-14
7.50418e-14
5.38367e-14
7.08647e-08
3.4696e-08
1.67053e-09
4.35766e-08
5.77979e-08
3.39807e-08
1.23026e-08
2.54375e-09
6.87391e-10
2.19481e-10
1.18486e-10
9.31114e-11
1.27847e-10
1.70779e-10
5.66603e-10
2.10178e-09
8.03601e-09
5.3449e-08
1.22349e-07
4.79818e-08
6.60551e-09
9.18704e-10
1.54069e-10
3.10734e-11
7.80897e-12
2.55665e-12
1.32948e-12
1.01362e-12
6.334e-13
1.58285e-13
2.97748e-15
2.25521e-14
1.59134e-13
3.20037e-13
3.27878e-13
2.2253e-13
1.10223e-13
3.66963e-14
1.53446e-14
5.8485e-15
6.96955e-08
4.29284e-08
1.97531e-10
1.50342e-08
3.67808e-08
1.52502e-07
1.37333e-07
7.13601e-09
6.93969e-07
6.74582e-07
2.53995e-08
3.07809e-11
5.12732e-09
9.35771e-09
1.93416e-08
3.7572e-08
4.50068e-08
7.09174e-08
8.28947e-08
8.34343e-08
7.45895e-08
5.70651e-08
3.66633e-08
1.97213e-08
9.18867e-09
4.00863e-09
1.84687e-09
1.03267e-09
6.25665e-10
3.29488e-10
1.17032e-10
2.1893e-11
8.87667e-13
7.30678e-13
4.3314e-12
6.9325e-12
6.62589e-12
3.77508e-12
1.81667e-12
3.89019e-13
5.48888e-09
5.92414e-07
7.72891e-07
2.94812e-08
1.20606e-07
2.54728e-09
1.48184e-07
9.00969e-07
1.18185e-06
6.16088e-07
1.03325e-07
5.06518e-09
4.69651e-13
7.28274e-10
9.88734e-10
2.95657e-09
9.14895e-09
2.4405e-08
4.92167e-08
6.48048e-08
7.07868e-08
6.72781e-08
5.54833e-08
4.12158e-08
3.03609e-08
2.3809e-08
1.86664e-08
1.43709e-08
1.22153e-08
1.20859e-08
1.11746e-08
6.82713e-09
1.61885e-09
3.46521e-11
2.32962e-11
1.30326e-10
1.67979e-10
9.54931e-11
5.13196e-11
6.8811e-12
3.08855e-08
8.82614e-09
2.44688e-08
1.45353e-07
6.87764e-08
2.82414e-08
4.50899e-07
1.15067e-06
1.49826e-06
1.00411e-06
2.48316e-07
1.47738e-08
1.89995e-10
1.27381e-10
3.37228e-10
9.13974e-10
2.70892e-09
9.33433e-09
3.16655e-08
5.70674e-08
6.36662e-08
6.23295e-08
5.59646e-08
4.33071e-08
3.09636e-08
2.48688e-08
2.20831e-08
1.8641e-08
1.46173e-08
1.12804e-08
7.17484e-09
1.94228e-09
5.94679e-10
5.69067e-10
1.33872e-09
3.84587e-09
6.68592e-09
5.07073e-09
2.92497e-09
5.26745e-10
8.63198e-08
1.65517e-08
2.76264e-08
1.64544e-07
1.00666e-08
3.01192e-07
1.14447e-06
1.66772e-06
1.82569e-06
1.29527e-06
5.1838e-07
6.68715e-08
4.44136e-09
1.30228e-10
7.28184e-12
8.86532e-11
1.83248e-09
5.60953e-09
1.77982e-08
5.25866e-08
6.95105e-08
6.01743e-08
4.85565e-08
3.48232e-08
2.39701e-08
1.66018e-08
1.07375e-08
4.4134e-09
1.59583e-09
3.88877e-10
1.0877e-09
3.00964e-08
2.45956e-09
2.20878e-10
5.26894e-12
1.07034e-12
8.05165e-11
2.31927e-10
8.32943e-10
1.78468e-09
3.55285e-07
4.63568e-08
1.33101e-07
1.54542e-07
4.43062e-09
3.22758e-08
3.19172e-07
1.0578e-06
1.55451e-06
1.26127e-06
5.74709e-07
1.21592e-07
2.18783e-08
5.04161e-09
1.19943e-09
8.31312e-11
8.32059e-10
1.39047e-08
2.67234e-08
4.57052e-08
6.47349e-08
5.11561e-08
3.74452e-08
2.36151e-08
1.37956e-08
1.28133e-08
1.04274e-08
5.44957e-09
3.18607e-10
2.39524e-11
5.84422e-09
4.124e-08
2.34405e-09
1.68023e-09
3.40765e-12
1.99664e-11
2.05156e-10
2.76521e-10
4.85364e-10
5.18504e-10
1.61177e-08
7.4013e-08
2.04015e-07
2.47631e-07
4.95605e-08
6.76836e-08
7.97743e-07
1.57967e-06
1.85003e-06
1.49339e-06
7.76695e-07
2.73252e-07
9.96115e-08
3.73227e-08
1.00818e-08
3.24815e-10
4.70379e-10
2.25352e-08
6.07564e-08
6.15563e-08
5.07571e-08
1.75692e-08
1.03198e-08
1.7808e-08
1.86896e-08
1.85435e-08
1.46129e-08
9.59013e-09
1.09514e-08
3.90152e-09
4.69377e-10
1.33441e-09
4.63107e-09
1.47918e-12
2.54893e-09
5.20619e-09
2.84527e-09
6.34554e-09
6.12198e-09
3.10161e-09
1.78093e-08
3.10844e-08
5.90207e-10
1.30851e-07
1.73874e-07
3.87333e-08
2.17847e-08
9.93126e-07
1.79797e-06
1.71398e-06
1.14144e-06
6.27262e-07
3.27865e-07
9.94112e-08
2.97399e-08
9.705e-10
7.6345e-09
5.45188e-08
6.23977e-08
3.11576e-08
3.56857e-08
2.6176e-08
1.24818e-08
1.8659e-08
2.4064e-08
2.12948e-08
1.62089e-08
1.06484e-08
9.02914e-09
1.20311e-08
1.4386e-08
1.364e-08
1.16314e-08
2.14008e-09
1.5195e-11
3.75645e-09
2.55442e-09
1.70279e-09
2.28432e-10
4.27049e-10
5.77142e-07
3.50209e-09
1.01786e-08
4.23365e-10
1.59768e-09
2.31369e-09
4.87403e-08
6.51131e-07
1.3912e-06
1.43373e-06
1.11194e-06
7.75326e-07
5.55364e-07
2.36678e-07
1.28973e-08
5.67271e-09
5.92917e-08
6.17179e-08
4.80867e-08
3.52818e-08
3.8688e-08
3.97149e-08
2.80671e-08
2.49578e-08
2.7837e-08
2.66993e-08
2.1756e-08
1.56349e-08
1.17606e-08
1.09282e-08
1.09992e-08
8.87689e-09
5.95453e-09
2.59751e-09
1.97744e-09
1.2644e-09
1.41124e-11
2.26979e-11
1.77597e-09
1.3161e-10
2.78927e-08
8.98765e-08
1.37184e-08
7.30048e-09
7.23674e-11
4.13808e-08
2.6271e-07
8.96805e-07
1.38487e-06
1.40163e-06
1.15237e-06
1.00357e-06
6.54771e-07
1.84596e-08
2.60102e-08
7.46101e-08
6.75e-08
5.73121e-08
4.7202e-08
4.51263e-08
3.97921e-08
3.69992e-08
3.16981e-08
1.88017e-08
1.4469e-08
2.11314e-08
9.80912e-09
2.81167e-09
5.89744e-09
5.65559e-09
6.43205e-09
9.98253e-09
9.25896e-09
3.6564e-10
1.19504e-09
1.48454e-08
2.07555e-10
3.67648e-12
4.30073e-12
1.62273e-11
4.59557e-08
2.17324e-08
3.89618e-08
1.80395e-08
6.26027e-10
5.15495e-08
6.34906e-07
9.74104e-07
9.79372e-07
8.91899e-07
7.39066e-07
3.4951e-07
9.95542e-09
6.5938e-08
8.11777e-08
7.65224e-08
6.50032e-08
5.36073e-08
4.41165e-08
3.9967e-08
3.49442e-08
3.02767e-08
2.54575e-08
1.41e-08
1.71141e-08
1.79921e-08
3.79497e-09
8.66045e-09
4.12308e-10
4.76859e-09
4.50539e-09
3.71459e-09
3.00633e-10
1.45512e-09
2.93931e-08
9.13835e-09
9.23405e-09
7.64375e-09
2.60431e-10
7.2617e-12
3.48114e-08
3.40139e-08
3.22114e-08
4.25273e-08
6.0944e-08
4.22929e-08
1.59721e-08
2.74393e-10
1.4184e-09
2.64881e-08
2.65105e-08
4.68425e-08
5.82593e-08
6.49643e-08
6.58954e-08
5.53659e-08
4.88857e-08
4.47216e-08
4.18981e-08
3.88081e-08
3.09234e-08
2.67818e-08
2.34205e-08
7.40328e-09
2.80088e-10
8.33923e-09
1.57139e-08
1.48154e-08
1.39076e-08
7.49872e-09
7.6426e-10
1.58959e-09
2.91457e-09
8.47334e-08
1.04965e-07
3.40294e-08
2.562e-11
9.32474e-09
3.31469e-08
6.04196e-09
3.07859e-08
2.50184e-08
2.88106e-08
3.80336e-08
5.03948e-08
5.22257e-08
5.24519e-08
5.54601e-08
5.69659e-08
5.53059e-08
5.48046e-08
5.94054e-08
5.59353e-08
4.9344e-08
5.30019e-08
4.80573e-08
4.27602e-08
4.45806e-08
3.93185e-08
3.19065e-08
2.90862e-08
2.481e-08
2.44224e-08
2.29656e-08
2.02062e-08
1.90295e-08
1.70154e-08
1.18043e-08
8.21668e-09
8.21035e-09
8.75865e-09
8.33833e-09
1.01471e-08
8.54571e-09
6.60995e-09
4.94377e-09
1.52298e-09
2.31209e-09
3.66005e-09
3.77501e-09
2.89934e-08
2.34948e-08
3.22692e-08
3.30748e-08
4.3034e-08
4.66115e-08
4.72419e-08
4.95842e-08
5.26793e-08
4.65014e-08
4.90397e-08
5.44824e-08
4.83168e-08
4.06819e-08
4.29788e-08
4.40106e-08
3.74009e-08
3.49137e-08
3.66446e-08
3.15615e-08
2.73353e-08
2.50204e-08
2.3754e-08
2.14054e-08
1.97741e-08
1.59234e-08
1.45398e-08
8.46186e-09
3.67885e-09
4.91866e-09
3.03311e-09
1.16984e-08
2.90223e-08
4.20442e-09
3.85018e-09
7.66766e-09
5.82203e-08
1.99106e-10
2.23423e-09
3.37527e-11
2.33416e-08
2.52127e-08
3.09202e-08
2.94279e-08
3.43856e-08
3.68391e-08
3.75934e-08
4.20538e-08
4.49999e-08
4.5026e-08
4.5913e-08
4.7159e-08
4.20342e-08
3.74382e-08
3.39192e-08
3.67221e-08
3.71046e-08
3.05877e-08
2.95098e-08
2.97253e-08
2.51095e-08
2.18528e-08
2.28603e-08
1.94733e-08
1.29023e-08
1.32826e-08
1.32878e-08
1.17794e-08
2.92596e-09
2.05996e-09
6.75308e-09
1.55163e-09
2.84243e-09
6.40123e-09
5.7994e-10
2.86338e-10
3.03563e-09
3.06569e-09
4.83642e-10
2.19062e-09
2.34829e-08
2.66941e-08
2.98036e-08
2.85875e-08
2.93939e-08
2.99189e-08
3.16596e-08
3.48972e-08
3.6248e-08
3.98481e-08
3.98358e-08
3.86313e-08
3.70523e-08
3.40255e-08
3.01239e-08
2.77197e-08
3.19778e-08
3.1606e-08
2.48601e-08
2.39792e-08
2.49531e-08
2.2426e-08
1.96206e-08
1.89262e-08
1.5608e-08
1.39266e-08
1.24185e-08
1.34408e-08
1.13158e-08
8.88323e-09
8.17672e-09
5.7685e-09
5.18632e-09
6.41396e-09
4.95365e-09
4.015e-08
7.03688e-11
4.15896e-09
1.89755e-08
5.00725e-09
2.19437e-08
2.41782e-08
2.70929e-08
2.67623e-08
2.55001e-08
2.54968e-08
2.71308e-08
3.07777e-08
3.06556e-08
3.27468e-08
3.26766e-08
3.2265e-08
3.20375e-08
2.95573e-08
2.80448e-08
2.70127e-08
2.37061e-08
2.64657e-08
2.60723e-08
2.28832e-08
2.1152e-08
2.19305e-08
1.9063e-08
1.70887e-08
1.71707e-08
1.66851e-08
1.35075e-08
1.05169e-08
9.89717e-09
7.60859e-09
7.09924e-09
3.22677e-09
9.48764e-11
4.1292e-10
3.82986e-09
1.97066e-10
2.69125e-08
1.46126e-09
3.58574e-09
1.37043e-10
1.98827e-08
2.21816e-08
2.41553e-08
2.43067e-08
2.31686e-08
2.23162e-08
2.35065e-08
2.59305e-08
2.76188e-08
2.77216e-08
2.76747e-08
2.59063e-08
2.62017e-08
2.55832e-08
2.42992e-08
2.47246e-08
2.33999e-08
2.06216e-08
2.24518e-08
2.33412e-08
2.01792e-08
1.83449e-08
1.8853e-08
1.80557e-08
1.5317e-08
1.39414e-08
1.23173e-08
1.04576e-08
9.62179e-09
7.39265e-09
7.62301e-09
7.19045e-09
4.51396e-09
2.42252e-09
2.92146e-09
1.86821e-09
1.14952e-09
1.73466e-09
3.86454e-09
3.06714e-09
1.91245e-08
2.04755e-08
2.10747e-08
2.11423e-08
2.05992e-08
2.01244e-08
2.05131e-08
2.18628e-08
2.33399e-08
2.32922e-08
2.36804e-08
2.36054e-08
2.12023e-08
2.17329e-08
2.21631e-08
2.01666e-08
2.08162e-08
2.1727e-08
1.98601e-08
1.94907e-08
2.02392e-08
1.93209e-08
1.75449e-08
1.71141e-08
1.57424e-08
1.405e-08
1.28529e-08
1.20432e-08
1.11577e-08
8.83722e-09
6.85706e-09
5.95822e-09
6.08235e-09
5.41038e-09
4.85639e-09
2.95022e-09
2.56277e-09
2.15463e-09
2.10134e-09
2.13202e-09
1.7325e-08
1.80807e-08
1.88722e-08
1.88089e-08
1.80246e-08
1.79051e-08
1.82861e-08
1.85671e-08
1.92556e-08
2.0205e-08
1.94969e-08
1.95296e-08
1.96861e-08
1.8207e-08
1.81282e-08
1.87075e-08
1.79498e-08
1.81567e-08
1.90048e-08
1.84422e-08
1.79783e-08
1.82984e-08
1.73092e-08
1.573e-08
1.49679e-08
1.43528e-08
1.27972e-08
1.05331e-08
9.10352e-09
8.49835e-09
8.04092e-09
6.80693e-09
5.30152e-09
3.49527e-09
2.69625e-09
2.06133e-09
2.48211e-09
2.44601e-09
3.49957e-09
3.17304e-09
1.63824e-08
1.67365e-08
1.66781e-08
1.65404e-08
1.61966e-08
1.55938e-08
1.57911e-08
1.64175e-08
1.63403e-08
1.66884e-08
1.71831e-08
1.65198e-08
1.6456e-08
1.65772e-08
1.56436e-08
1.56118e-08
1.66071e-08
1.63404e-08
1.65596e-08
1.77049e-08
1.76494e-08
1.67217e-08
1.63806e-08
1.59442e-08
1.46007e-08
1.29216e-08
1.18466e-08
1.09388e-08
9.76125e-09
8.04902e-09
6.68041e-09
5.49303e-09
5.14252e-09
4.31062e-09
3.97052e-09
2.96918e-09
2.81538e-09
2.32902e-09
2.44571e-09
2.37249e-09
1.48219e-08
1.48659e-08
1.48211e-08
1.45391e-08
1.4067e-08
1.38085e-08
1.36087e-08
1.36675e-08
1.42282e-08
1.42767e-08
1.42828e-08
1.47716e-08
1.42862e-08
1.37668e-08
1.42501e-08
1.38801e-08
1.34716e-08
1.43868e-08
1.48632e-08
1.44291e-08
1.43701e-08
1.41024e-08
1.29355e-08
1.13562e-08
1.02275e-08
9.07984e-09
7.60699e-09
5.9027e-09
4.70486e-09
3.92339e-09
3.44697e-09
2.71718e-09
2.08769e-09
1.2953e-09
1.08396e-09
7.60204e-10
1.31308e-09
1.33295e-09
2.14282e-09
1.97751e-09
1.41199e-08
1.39252e-08
1.35035e-08
1.30604e-08
1.26419e-08
1.22258e-08
1.21446e-08
1.22628e-08
1.2398e-08
1.29284e-08
1.32713e-08
1.31702e-08
1.32426e-08
1.26434e-08
1.11528e-08
9.93734e-09
8.44435e-09
6.09351e-09
4.28724e-09
3.01419e-09
1.76822e-09
8.40597e-10
4.33321e-10
2.0181e-10
7.48751e-11
1.80818e-11
8.0369e-12
5.04885e-12
8.04451e-12
5.63623e-12
6.53949e-12
6.31072e-12
1.90853e-11
3.8986e-11
1.00685e-10
1.61751e-10
2.49224e-10
2.63812e-10
2.90021e-10
2.19618e-10
1.25131e-08
1.23599e-08
1.20472e-08
1.15948e-08
1.10909e-08
1.0778e-08
1.06323e-08
1.06486e-08
1.085e-08
1.0879e-08
1.05349e-08
9.71513e-09
7.92125e-09
5.34098e-09
2.82721e-09
9.19647e-10
8.72318e-11
2.35463e-13
8.14635e-11
3.44796e-10
6.52476e-10
8.0978e-10
8.02726e-10
7.44607e-10
5.79358e-10
3.80149e-10
2.16141e-10
1.1475e-10
5.03891e-11
1.75907e-11
3.70346e-12
3.7465e-13
1.91929e-13
1.12203e-12
4.52513e-12
7.67745e-12
1.80129e-11
2.05143e-11
3.121e-11
2.2415e-11
1.67123e-09
1.65516e-09
1.69172e-09
1.79403e-09
1.89183e-09
2.0038e-09
2.13206e-09
2.24587e-09
2.3013e-09
2.23143e-09
1.95018e-09
1.51544e-09
9.93916e-10
4.68588e-10
1.32598e-10
1.07587e-11
2.21603e-12
6.72259e-11
2.06506e-10
3.10677e-10
3.50607e-10
3.20766e-10
2.35863e-10
1.61655e-10
1.08895e-10
7.1241e-11
3.65331e-11
1.42732e-11
3.82867e-12
9.75251e-13
1.6014e-13
3.35324e-14
2.12805e-13
9.18784e-13
2.62911e-12
3.8424e-12
4.75091e-12
3.76507e-12
2.92187e-12
1.17602e-12
1.38928e-11
1.41385e-11
1.74958e-11
2.37644e-11
3.19682e-11
4.18248e-11
5.22086e-11
6.30053e-11
7.52567e-11
8.44105e-11
8.17568e-11
7.03619e-11
5.26994e-11
2.71205e-11
7.75357e-12
6.52432e-13
1.06927e-12
1.16572e-11
3.22775e-11
4.84086e-11
5.42565e-11
4.97459e-11
3.48923e-11
1.98885e-11
9.55391e-12
4.17576e-12
1.5161e-12
3.23295e-13
9.62038e-15
8.4746e-15
1.25422e-13
3.04828e-13
5.74425e-13
7.06469e-13
8.80648e-13
7.68958e-13
7.77686e-13
4.94406e-13
4.10924e-13
1.77974e-13
4.42399e-14
2.27545e-14
3.75996e-14
7.34013e-14
1.34503e-13
2.28237e-13
3.60261e-13
5.3764e-13
7.61596e-13
1.0453e-12
1.29286e-12
1.32132e-12
1.21396e-12
8.37729e-13
1.79551e-13
4.94212e-14
8.30696e-13
3.14006e-12
5.31923e-12
4.80302e-12
2.1585e-12
4.89541e-13
4.15601e-14
2.52145e-15
5.48425e-14
1.3351e-13
2.16064e-13
2.54063e-13
2.51712e-13
1.89322e-13
1.32618e-13
8.33658e-14
5.399e-14
3.12436e-14
1.7986e-14
7.86838e-15
3.74246e-15
8.69212e-16
8.50346e-16
6.19153e-15
)
;

boundaryField
{
    inlet
    {
        type            calculated;
        value           nonuniform List<scalar> 
20
(
1.75818e-34
2.59089e-32
1.62052e-33
2.60748e-35
7.37208e-34
1.12742e-35
1.56593e-34
8.63237e-34
9.08572e-34
2.6893e-33
2.53985e-33
1.59249e-33
7.55637e-34
1.19275e-34
8.52329e-36
9.71121e-35
6.60877e-35
5.87273e-33
6.16584e-33
1.48325e-34
)
;
    }
    outlet
    {
        type            calculated;
        value           nonuniform List<scalar> 
27
(
8.45748e-33
2.36378e-35
1.72672e-33
1.02621e-32
4.79821e-34
1.64838e-37
9.1057e-34
2.89589e-32
2.06121e-33
6.84002e-33
1.99353e-32
1.19848e-32
1.57592e-32
1.27817e-32
1.09273e-32
2.36146e-33
1.9718e-35
4.82781e-36
1.94174e-35
2.9095e-36
4.15442e-36
1.08657e-35
4.45093e-36
2.8145e-34
2.9846e-33
1.46724e-32
4.25216e-32
)
;
    }
    lowerWall
    {
        type            fixedValue;
        value           uniform 0;
    }
    upperWall
    {
        type            fixedValue;
        value           uniform 0;
    }
    defaultFaces
    {
        type            empty;
    }
}


// ************************************************************************* //
