/*--------------------------------*- C++ -*----------------------------------*\
| =========                 |                                                 |
| \\      /  F ield         | OpenFOAM: The Open Source CFD Toolbox           |
|  \\    /   O peration     | Version:  2112                                  |
|   \\  /    A nd           | Website:  www.openfoam.com                      |
|    \\/     M anipulation  |                                                 |
\*---------------------------------------------------------------------------*/
FoamFile
{
    version     2.0;
    format      ascii;
    arch        "LSB;label=32;scalar=64";
    class       volScalarField;
    location    "0.41";
    object      p;
}
// * * * * * * * * * * * * * * * * * * * * * * * * * * * * * * * * * * * * * //

dimensions      [0 2 -2 0 0 0 0];

internalField   nonuniform List<scalar> 
1880
(
0.00315241
0.00301876
0.00292604
0.002878
0.00284855
0.00282856
0.00280927
0.00279145
0.00277666
0.00276334
0.002755
0.0027485
0.00274736
0.00274544
0.00275295
0.00276052
0.00277353
0.00279877
0.0028199
0.00285899
0.00290132
0.00294727
0.00301436
0.00308253
0.00315641
0.0032432
0.00332718
0.00338311
0.003489
0.00346558
0.00297254
0.00294069
0.00290052
0.00286378
0.00283417
0.00281297
0.00279529
0.00278056
0.00276699
0.00275553
0.00274428
0.00274063
0.00273304
0.00273556
0.00273722
0.00274691
0.00275512
0.00277786
0.00279576
0.00283124
0.00286858
0.00290766
0.00296943
0.00302931
0.00309196
0.00317837
0.00323338
0.00330939
0.00339463
0.00346416
0.00293929
0.0029183
0.00288828
0.00285664
0.00282859
0.00280665
0.00278783
0.00277263
0.00275986
0.00274728
0.00273631
0.00272988
0.00272201
0.00272092
0.00271969
0.00272707
0.00273097
0.00274837
0.0027621
0.00278703
0.00281708
0.00284399
0.00289376
0.00293408
0.00298024
0.00303932
0.0030841
0.00312695
0.00318028
0.00321451
0.00288236
0.0028688
0.00285166
0.00283185
0.00281017
0.00279194
0.00277224
0.00275873
0.00274469
0.00273328
0.00272113
0.00271322
0.00270487
0.00269877
0.00269753
0.00269758
0.00270148
0.00270752
0.00271915
0.00273427
0.0027525
0.00277085
0.00280292
0.00282566
0.00285601
0.00288844
0.00290637
0.00292384
0.00294101
0.00293089
0.00285378
0.00284327
0.00283034
0.00281615
0.00279833
0.00278151
0.00276215
0.00274756
0.00273292
0.0027205
0.00270682
0.00269763
0.00268691
0.00267822
0.00267291
0.00266947
0.00266809
0.0026675
0.00267306
0.00267862
0.0026863
0.00269483
0.00270837
0.00271991
0.00272778
0.00273555
0.00273221
0.00272427
0.00270013
0.00266235
0.00282607
0.00281683
0.002806
0.00279524
0.00278079
0.00276597
0.00274799
0.00273241
0.00271833
0.00270351
0.00268994
0.00267778
0.00266641
0.00265368
0.00264546
0.00263781
0.00263101
0.00262422
0.00262227
0.00262011
0.00261763
0.0026137
0.00261449
0.00260964
0.00259994
0.00258761
0.00256365
0.00252724
0.00248054
0.00241207
0.00280476
0.00279701
0.00278754
0.00277878
0.00276623
0.00275289
0.00273547
0.0027194
0.00270454
0.00268819
0.00267308
0.00265871
0.00264517
0.00262928
0.00261717
0.00260557
0.00259299
0.00258032
0.00257086
0.00256125
0.00254829
0.00253417
0.00252097
0.00250277
0.00247755
0.00244643
0.00240271
0.00234774
0.00227692
0.0021855
0.0027871
0.00278057
0.00277197
0.00276357
0.00275233
0.00273902
0.00272256
0.0027052
0.00269008
0.00267189
0.00265506
0.00263878
0.00262235
0.00260372
0.00258767
0.00257159
0.0025542
0.00253523
0.00251891
0.00250132
0.00247965
0.00245516
0.00243023
0.00239953
0.00236031
0.00231237
0.00225436
0.00218051
0.00209247
0.00198391
0.00277298
0.00276763
0.00275934
0.00275102
0.00274007
0.00272675
0.00271037
0.00269198
0.0026761
0.00265606
0.00263742
0.00261901
0.00259965
0.00257832
0.00255801
0.00253803
0.0025156
0.00249062
0.00246784
0.00244292
0.00241284
0.00237918
0.00234332
0.00230144
0.00224997
0.00218862
0.00211669
0.00202919
0.00192699
0.0018048
0.00276245
0.0027577
0.00274979
0.00274087
0.00272986
0.00271581
0.0026991
0.0026797
0.0026624
0.00264096
0.00261993
0.00259957
0.00257732
0.0025528
0.00252899
0.00250467
0.00247757
0.00244704
0.00241806
0.00238646
0.00234866
0.00230632
0.00226123
0.0022093
0.00214761
0.00207435
0.00199141
0.00189289
0.00177918
0.00164705
0.00275512
0.00275107
0.00274321
0.00273345
0.00272174
0.00270662
0.00268906
0.00266841
0.00264954
0.00262653
0.0026031
0.00258081
0.00255558
0.00252807
0.00250072
0.00247231
0.00244089
0.00240496
0.0023703
0.00233282
0.00228767
0.00223775
0.00218457
0.00212383
0.0020533
0.00197061
0.00187808
0.00177096
0.00164858
0.00150892
0.00275166
0.00274771
0.00273972
0.00272885
0.00271599
0.00269956
0.00268056
0.00265874
0.00263789
0.0026134
0.00258761
0.00256316
0.00253534
0.00250451
0.00247398
0.00244179
0.00240597
0.00236538
0.00232542
0.0022825
0.002231
0.00217404
0.0021139
0.00204569
0.00196755
0.00187708
0.0017768
0.00166318
0.00153425
0.00138905
0.002752
0.00274785
0.00273918
0.00272685
0.0027122
0.0026939
0.0026731
0.00264974
0.00262688
0.00260086
0.00257292
0.00254638
0.00251609
0.0024821
0.00244862
0.00241284
0.00237295
0.00232824
0.00228339
0.00223569
0.00217853
0.00211535
0.00204939
0.00197495
0.00189021
0.00179358
0.00168701
0.00156818
0.00143452
0.00128507
0.00275712
0.00275261
0.00274314
0.00272909
0.00271233
0.00269198
0.00266902
0.00264401
0.00261896
0.0025911
0.00256108
0.00253204
0.00249928
0.00246227
0.00242574
0.00238673
0.00234286
0.00229446
0.00224534
0.002193
0.00213094
0.00206242
0.00199142
0.00191185
0.00182152
0.00171996
0.00160849
0.0014857
0.00134868
0.00119636
0.00276683
0.00276088
0.00274916
0.00273212
0.00271204
0.00268887
0.00266343
0.00263664
0.00260971
0.00258025
0.00254858
0.0025175
0.00248265
0.00244312
0.00240403
0.00236225
0.00231493
0.00226345
0.00221063
0.00215405
0.00208784
0.00201495
0.00193976
0.00185595
0.00176081
0.00165523
0.00154011
0.00141427
0.00127494
0.00112052
0.00278571
0.00277831
0.00276377
0.00274275
0.00271849
0.002692
0.00266394
0.00263531
0.00260657
0.00257536
0.00254191
0.00250836
0.00247097
0.00242878
0.00238675
0.00234201
0.00229139
0.00223701
0.00218089
0.00212014
0.0020502
0.00197386
0.00189495
0.00180744
0.00170842
0.00159982
0.00148211
0.00135378
0.00121259
0.00105749
0.00280628
0.00279455
0.00277423
0.00274763
0.00271907
0.0026899
0.00266001
0.00263021
0.00260005
0.00256716
0.002532
0.00249621
0.00245658
0.00241257
0.00236851
0.00232158
0.00226857
0.00221209
0.00215337
0.00208917
0.00201644
0.00193773
0.0018555
0.00176463
0.0016627
0.00155207
0.00143283
0.00130295
0.00116037
0.00100364
0.00285951
0.00283743
0.00280324
0.00276522
0.00272963
0.00269675
0.00266502
0.00263374
0.00260159
0.00256649
0.00252933
0.00249116
0.00244956
0.00240428
0.00235821
0.00230894
0.00225394
0.0021954
0.00213371
0.00206566
0.00199024
0.00190937
0.00182381
0.00172993
0.00162608
0.00151382
0.00139301
0.00126165
0.00111864
0.00096338
0.00288837
0.00285405
0.00280925
0.00276618
0.00272863
0.00269564
0.00266356
0.00263126
0.00259731
0.00256055
0.00252235
0.00248243
0.00243904
0.00239292
0.00234518
0.00229365
0.00223666
0.00217614
0.00211194
0.00204155
0.00196512
0.00188307
0.00179426
0.00169793
0.0015938
0.00148168
0.00136047
0.0012282
0.00108374
0.000926993
0.00306793
0.00292847
0.0028314
0.00277679
0.00274095
0.00270761
0.00267284
0.00263717
0.00260031
0.00256194
0.00252285
0.00248209
0.00243843
0.00239197
0.00234258
0.00228957
0.00223228
0.00217104
0.00210508
0.00203334
0.00195588
0.00187272
0.00178264
0.0016854
0.00158029
0.00146692
0.00134456
0.00121242
0.00106985
0.000916601
0.00358386
0.00361838
0.00327115
0.00290469
0.00229553
0.00172111
0.000938634
6.23774e-05
-0.00116568
-0.00267291
0.00357
0.0034117
0.00293766
0.00250708
0.00186042
0.00123457
0.000477505
-0.000523749
-0.00158304
-0.00289133
0.00322922
0.00301416
0.00257143
0.00221715
0.00159227
0.00106171
0.000293218
-0.000517491
-0.00153367
-0.00244869
0.00292561
0.00268604
0.00229646
0.00184692
0.00131495
0.000707272
4.5062e-05
-0.000761937
-0.00164299
-0.00246295
0.00261033
0.00236104
0.00195754
0.00157033
0.00106767
0.000534086
-8.7689e-05
-0.000790731
-0.00158601
-0.00229763
0.0023348
0.00207432
0.00173061
0.00131492
0.000868404
0.000334084
-0.000239376
-0.00088676
-0.00159124
-0.00224066
0.00208333
0.00183483
0.00148854
0.00110377
0.000683213
0.000199552
-0.000331926
-0.000920178
-0.00154515
-0.00213175
0.00186505
0.00161808
0.0013011
0.000926899
0.000534372
8.04876e-05
-0.000414533
-0.000957594
-0.00151563
-0.00205218
0.00167005
0.00143525
0.00112761
0.000776535
0.000404145
-1.34389e-05
-0.000471765
-0.000973059
-0.00147366
-0.00195966
0.00150256
0.00127552
0.00098518
0.000651991
0.000300547
-8.96176e-05
-0.000514751
-0.000977491
-0.00143327
-0.00187645
0.00135603
0.00113755
0.000860438
0.000545739
0.00021291
-0.000151992
-0.000547046
-0.000972495
-0.00139058
-0.0017961
0.0012313
0.00102043
0.000757918
0.000459675
0.000144617
-0.000198397
-0.000567573
-0.000959831
-0.00134592
-0.00172104
0.00112295
0.000918342
0.000668381
0.000385664
8.63013e-05
-0.000237005
-0.000582857
-0.000945244
-0.0013031
-0.00165181
0.00103253
0.000834687
0.000597189
0.000328824
4.38741e-05
-0.000261894
-0.000586982
-0.000924655
-0.00125916
-0.00158659
0.000953905
0.000759872
0.000532557
0.000277234
5.43095e-06
-0.000284492
-0.000590599
-0.000906406
-0.00122024
-0.00152867
0.000891544
0.000703446
0.000486188
0.000242691
-1.73353e-05
-0.000293745
-0.000584011
-0.000882564
-0.00118039
-0.00147427
0.00083515
0.000648518
0.000438749
0.000206128
-4.22033e-05
-0.000305295
-0.000580386
-0.000863238
-0.00114666
-0.00142749
0.000797087
0.00061496
0.000412516
0.000188768
-5.05331e-05
-0.00030384
-0.000568057
-0.000839967
-0.00111353
-0.00138521
0.000758686
0.000576669
0.000379328
0.000165165
-6.33148e-05
-0.00030508
-0.000557322
-0.000818357
-0.00108346
-0.00134774
0.000751863
0.000571244
0.000375315
0.000164073
-6.08256e-05
-0.000299237
-0.000548017
-0.000806059
-0.00106849
-0.00133297
-0.00541883
-0.00578019
-0.00587723
-0.00598471
-0.00611272
-0.00699769
-0.00916544
-0.0117509
-0.0134038
-0.0138282
-0.0130299
-0.0114045
-0.00928061
-0.00699749
-0.00474166
-0.00255365
-0.000667291
0.000877195
0.00198727
0.0025719
0.00278752
0.00271598
0.0024999
0.00222735
0.00195157
0.00169815
0.0014762
0.00128366
0.00111222
0.000956237
0.000808294
0.000666224
0.000530642
0.000406339
0.000298278
0.00020938
0.000139177
8.51725e-05
4.42493e-05
1.20889e-05
-0.00556095
-0.00588423
-0.00598758
-0.00587053
-0.00638525
-0.00780809
-0.0102161
-0.012753
-0.0142683
-0.0145262
-0.0135794
-0.0118181
-0.00960608
-0.00727078
-0.00501305
-0.00282123
-0.000909124
0.000657825
0.00180354
0.00243237
0.00267614
0.00262968
0.00243017
0.00217018
0.00190477
0.00166026
0.0014455
0.00125712
0.00108895
0.000934735
0.000788648
0.000649527
0.000517717
0.000397315
0.000293019
0.00020701
0.000138827
8.59283e-05
4.50425e-05
1.28669e-05
-0.0056531
-0.00590661
-0.00597194
-0.00628728
-0.00702705
-0.008942
-0.0115373
-0.0140906
-0.0155234
-0.0156186
-0.0144647
-0.0124645
-0.0101426
-0.00773837
-0.00545896
-0.00328765
-0.00135996
0.000242298
0.00143301
0.00212894
0.00241758
0.00241545
0.00225369
0.00202519
0.00178609
0.00156338
0.00136553
0.00118963
0.00103158
0.00088684
0.000752779
0.000625515
0.00050663
0.000397833
0.00030166
0.000219792
0.000152278
9.7718e-05
5.34414e-05
1.65187e-05
-0.00519814
-0.00534987
-0.00527508
-0.00578369
-0.00743746
-0.0100313
-0.0127905
-0.0153297
-0.0167155
-0.0166683
-0.0153376
-0.0131547
-0.0107151
-0.00824191
-0.0059505
-0.00379652
-0.0018501
-0.000240473
0.000967817
0.00171983
0.00206046
0.00211198
0.00200404
0.00182496
0.00162695
0.00143682
0.00126419
0.00110835
0.000965174
0.000832219
0.000708481
0.000592364
0.000484221
0.000384631
0.000296256
0.000220027
0.00015576
0.000102176
5.689e-05
1.78461e-05
-0.00546816
-0.00579842
-0.00531232
-0.00594337
-0.00765295
-0.010509
-0.0133569
-0.0160416
-0.0175014
-0.0174645
-0.0160428
-0.0137446
-0.0112393
-0.00874227
-0.00642885
-0.00427966
-0.00233808
-0.000721178
0.000482668
0.00125349
0.00163678
0.0017443
0.00169819
0.00157959
0.00143368
0.00128412
0.00114144
0.00100813
0.000883109
0.000765277
0.00065463
0.000550859
0.00045395
0.000365452
0.000286012
0.00021671
0.000157289
0.000106136
6.10469e-05
2.03113e-05
-0.0045614
-0.00535727
-0.0043889
-0.00527392
-0.00747543
-0.010567
-0.0135622
-0.0162773
-0.0177326
-0.0176784
-0.016253
-0.0139899
-0.0115165
-0.00907024
-0.0067754
-0.00465229
-0.00274282
-0.00116414
1.39054e-05
0.000781178
0.00119815
0.00136173
0.00137946
0.00132374
0.00123221
0.00112539
0.0010142
0.00090428
0.000798262
0.000696975
0.000601061
0.000510627
0.00042513
0.000344505
0.000272128
0.00020879
0.000153706
0.00010512
6.08693e-05
2.03208e-05
-0.00466355
-0.00544923
-0.00443637
-0.00502524
-0.00708573
-0.0102134
-0.0131584
-0.0157656
-0.0171732
-0.017166
-0.0158581
-0.0137891
-0.0114919
-0.00916834
-0.0069389
-0.00487357
-0.00303114
-0.00152084
-0.000409917
0.00031651
0.000756685
0.000981923
0.00106686
0.00107345
0.00103367
0.00096614
0.000884746
0.000798279
0.000711648
0.000626465
0.000543882
0.000464579
0.000389226
0.000318418
0.000253161
0.000195081
0.000144394
9.99853e-05
5.89856e-05
2.03779e-05
-0.00493072
-0.00373125
-0.00369413
-0.00450416
-0.00668601
-0.00951323
-0.0121764
-0.0145066
-0.0158152
-0.0159352
-0.0149363
-0.0132156
-0.0111804
-0.0090212
-0.00689148
-0.00492379
-0.00320476
-0.00180291
-0.000759059
-6.60914e-05
0.000369609
0.000631191
0.000769831
0.000827316
0.00083379
0.000805093
0.000752469
0.000687902
0.00062027
0.000552156
0.000484318
0.000417386
0.000352013
0.000289474
0.000231256
0.000178995
0.000132727
9.11596e-05
5.23444e-05
1.7143e-05
-0.00385885
-0.00433029
-0.00465936
-0.00492372
-0.00638347
-0.00895814
-0.01131
-0.0132872
-0.014428
-0.0145689
-0.0137789
-0.0123603
-0.0105663
-0.00857499
-0.00659862
-0.00479194
-0.00324544
-0.00200185
-0.00106513
-0.000398383
5.70324e-05
0.000350349
0.000520649
0.000605804
0.000637732
0.000635575
0.000609374
0.000567991
0.000519982
0.0004693
0.000417337
0.000363795
0.000309091
0.000255439
0.000205932
0.000161482
0.000120299
8.335e-05
4.92964e-05
1.67686e-05
-0.00339891
-0.00389343
-0.00426713
-0.00497983
-0.00637958
-0.00846173
-0.0104029
-0.0119903
-0.0129013
-0.0129972
-0.0123714
-0.0111635
-0.00958484
-0.00782498
-0.00608803
-0.00453322
-0.00321229
-0.0021301
-0.00129022
-0.000675535
-0.000235953
7.04191e-05
0.000272823
0.00039224
0.000450874
0.000470556
0.000463875
0.000441851
0.00041263
0.000378909
0.00034174
0.000301988
0.000259995
0.000217184
0.000175979
0.000138837
0.000104422
7.25406e-05
4.18511e-05
1.33251e-05
-0.00316978
-0.00370737
-0.00432006
-0.00511468
-0.00622511
-0.00773974
-0.00921931
-0.0104022
-0.0110856
-0.0111942
-0.0107124
-0.00974586
-0.00845225
-0.00700385
-0.00558229
-0.00429585
-0.00317881
-0.00223942
-0.00147626
-0.000893419
-0.000472673
-0.000175044
2.95913e-05
0.000164356
0.000250781
0.000301273
0.000321579
0.000321521
0.000310407
0.000291794
0.000267669
0.000240165
0.000209667
0.00017765
0.000146892
0.000118405
9.08149e-05
6.37445e-05
3.77442e-05
1.31128e-05
-0.00294787
-0.00351241
-0.00412761
-0.00487964
-0.00578651
-0.00689148
-0.00802504
-0.00894775
-0.00948694
-0.00958811
-0.00924278
-0.00849761
-0.00747896
-0.00632511
-0.00516851
-0.00409533
-0.003141
-0.00231631
-0.00163239
-0.00109791
-0.000696175
-0.000396102
-0.000176274
-2.36492e-05
7.90001e-05
0.000147128
0.000188161
0.000208151
0.000213663
0.000208837
0.000197058
0.000180125
0.000158987
0.000135745
0.000112931
9.08479e-05
6.58568e-05
4.65427e-05
2.7108e-05
7.88519e-06
-0.00278152
-0.0033263
-0.0039136
-0.00459287
-0.00535693
-0.0062117
-0.00707841
-0.00778689
-0.00820863
-0.0082898
-0.00803073
-0.00746919
-0.00667985
-0.0057584
-0.00481204
-0.00391237
-0.00309266
-0.00237168
-0.00175671
-0.00126149
-0.000881249
-0.000588019
-0.000361375
-0.000191828
-7.13716e-05
1.18555e-05
6.82133e-05
0.000104023
0.000123251
0.000129863
0.000129067
0.000123901
0.000115507
0.000103193
8.83177e-05
7.39754e-05
6.0047e-05
4.11919e-05
2.27795e-05
7.34546e-06
-0.00263154
-0.00314152
-0.00368489
-0.00428987
-0.00494925
-0.00563813
-0.00630601
-0.00684936
-0.00717588
-0.00724514
-0.00705846
-0.00662647
-0.00600663
-0.00527451
-0.00449868
-0.00373952
-0.00303445
-0.00240521
-0.00186066
-0.00140438
-0.00103946
-0.000751871
-0.000525537
-0.000351715
-0.000221716
-0.000126689
-5.8843e-05
-1.14104e-05
2.11268e-05
4.24701e-05
5.51495e-05
6.1082e-05
6.20225e-05
5.88579e-05
5.24407e-05
4.39726e-05
3.45412e-05
2.44509e-05
1.54189e-05
5.02823e-06
-0.0025
-0.0029641
-0.00346034
-0.00400351
-0.00457814
-0.00514934
-0.00567687
-0.00610125
-0.00635994
-0.00641954
-0.00627621
-0.00594034
-0.00545038
-0.00485939
-0.00421907
-0.00358079
-0.00297971
-0.00242862
-0.001937
-0.00151679
-0.00117431
-0.000900101
-0.000678379
-0.000500465
-0.000361091
-0.00025293
-0.000169812
-0.000107676
-6.23348e-05
-2.95703e-05
-6.26108e-06
9.3451e-06
1.90235e-05
2.43924e-05
2.59323e-05
2.44509e-05
2.23174e-05
1.69796e-05
1.11674e-05
3.1827e-06
-0.00237654
-0.00279856
-0.00325177
-0.0037394
-0.00423914
-0.00471916
-0.00514964
-0.00548781
-0.00569286
-0.0057461
-0.00563805
-0.00537366
-0.00498124
-0.00450122
-0.00397615
-0.00343968
-0.00291699
-0.00243248
-0.00199811
-0.00161805
-0.00129658
-0.00103118
-0.000811683
-0.000629857
-0.000482712
-0.000366542
-0.000274733
-0.000201863
-0.000144948
-0.000101453
-6.83824e-05
-4.33097e-05
-2.45054e-05
-1.18259e-05
-4.41867e-06
-6.64936e-07
1.59697e-06
3.02484e-06
1.51662e-06
2.97344e-07
-0.00226236
-0.00264862
-0.00305974
-0.00349593
-0.00393501
-0.0043478
-0.00470656
-0.00498294
-0.00515137
-0.00519754
-0.00511656
-0.00490717
-0.00459035
-0.00419788
-0.00376028
-0.00330618
-0.00285926
-0.00243767
-0.00205077
-0.00170328
-0.00140163
-0.00114735
-0.00093367
-0.000753293
-0.000602268
-0.000477882
-0.000376517
-0.000293822
-0.000226519
-0.00017245
-0.000129728
-9.62318e-05
-6.97563e-05
-4.84789e-05
-3.21106e-05
-2.00651e-05
-1.09041e-05
-5.06307e-06
-2.27141e-06
-7.8649e-07
-0.00215676
-0.00251231
-0.00288537
-0.00327725
-0.00366551
-0.00402371
-0.00432885
-0.00455909
-0.00470144
-0.0047448
-0.00468318
-0.00451658
-0.00426
-0.00393669
-0.00357139
-0.00318855
-0.00280617
-0.0024365
-0.00209067
-0.00177538
-0.00149545
-0.0012535
-0.00104488
-0.000863603
-0.00070773
-0.000575977
-0.000465489
-0.000373227
-0.000296717
-0.00023331
-0.000180675
-0.000137397
-0.000102694
-7.59326e-05
-5.56507e-05
-3.98875e-05
-2.71632e-05
-1.6998e-05
-8.92662e-06
-2.9014e-06
-0.00205926
-0.00238857
-0.00272926
-0.00308268
-0.003428
-0.00374219
-0.00400707
-0.00420651
-0.00432789
-0.00436725
-0.00432112
-0.00418869
-0.00397973
-0.00371342
-0.00340926
-0.00308507
-0.00275628
-0.00243432
-0.0021279
-0.00184279
-0.00158283
-0.00135144
-0.00114775
-0.000967701
-0.000809171
-0.000671956
-0.000554482
-0.000453909
-0.000368228
-0.000296111
-0.000235952
-0.000185973
-0.000144363
-0.000109769
-8.12727e-05
-5.81908e-05
-3.99607e-05
-2.55929e-05
-1.39694e-05
-4.64289e-06
-0.00196995
-0.00227773
-0.00259092
-0.00291067
-0.00322003
-0.00349874
-0.00373149
-0.00390585
-0.00401408
-0.00405197
-0.0040165
-0.00391001
-0.00374082
-0.00352148
-0.00326772
-0.00299468
-0.00271377
-0.00243389
-0.00216249
-0.00190468
-0.00166402
-0.00144369
-0.0012444
-0.00106467
-0.000903242
-0.000759532
-0.000633146
-0.000523415
-0.00042889
-0.00034747
-0.000277519
-0.000218499
-0.000169744
-0.000130126
-9.80959e-05
-7.21531e-05
-5.06235e-05
-3.28884e-05
-1.80746e-05
-5.87097e-06
-0.00188889
-0.0021784
-0.00246835
-0.00275987
-0.00303924
-0.00328867
-0.00349576
-0.00365141
-0.00374864
-0.00378478
-0.0037592
-0.00367368
-0.00353536
-0.00335561
-0.00314575
-0.0029167
-0.00267815
-0.00243711
-0.0021986
-0.00196645
-0.00174369
-0.00153355
-0.00133795
-0.00115731
-0.000992206
-0.000843067
-0.000709517
-0.000591338
-0.000488362
-0.000399585
-0.000323315
-0.000258127
-0.000202776
-0.000156277
-0.000117448
-8.58302e-05
-6.01159e-05
-3.92556e-05
-2.17545e-05
-7.10322e-06
-0.00181615
-0.00209059
-0.00236155
-0.00262947
-0.00288374
-0.00310947
-0.00329541
-0.00343495
-0.00352335
-0.00355808
-0.0035396
-0.00347105
-0.0033587
-0.00321187
-0.00303968
-0.00285021
-0.00265051
-0.00244561
-0.0022381
-0.00203001
-0.00182378
-0.00162265
-0.00142969
-0.00124741
-0.00107774
-0.000921635
-0.000779647
-0.000652633
-0.00054042
-0.000441913
-0.000356447
-0.000283761
-0.000222649
-0.000171663
-0.000129254
-9.44725e-05
-6.60037e-05
-4.2775e-05
-2.35272e-05
-7.50756e-06
-0.00175133
-0.00201369
-0.00226898
-0.00251738
-0.00275073
-0.00295673
-0.00312565
-0.00325173
-0.00333202
-0.00336495
-0.00335162
-0.00329603
-0.00320502
-0.00308645
-0.00294749
-0.0027944
-0.00263144
-0.00246039
-0.00228237
-0.0020982
-0.0019084
-0.00171503
-0.00152237
-0.0013359
-0.00115988
-0.000995986
-0.0008449
-0.000708222
-0.000587075
-0.000480902
-0.000388582
-0.000309454
-0.000242571
-0.000186522
-0.000139854
-0.000101625
-7.05263e-05
-4.54344e-05
-2.4981e-05
-8.06757e-06
-0.00169482
-0.001948
-0.00219128
-0.00242388
-0.00263911
-0.00282734
-0.00298128
-0.00309622
-0.00316912
-0.00319912
-0.00318899
-0.00314346
-0.00306938
-0.00297524
-0.00286747
-0.00274864
-0.00262
-0.00248252
-0.00233385
-0.00217152
-0.0019959
-0.00180944
-0.00161662
-0.0014244
-0.00123932
-0.00106517
-0.00090389
-0.000757494
-0.000626703
-0.000511615
-0.000411742
-0.000326219
-0.000254057
-0.00019379
-0.000144052
-0.000103487
-7.08808e-05
-4.48107e-05
-2.40726e-05
-7.35036e-06
-0.00164603
-0.00189326
-0.00212846
-0.00234982
-0.00255146
-0.00272473
-0.00286476
-0.00296866
-0.00303391
-0.00306011
-0.00305059
-0.00301149
-0.00295123
-0.00287815
-0.00279767
-0.00271225
-0.00261974
-0.00251553
-0.00239242
-0.00224708
-0.00208027
-0.00189596
-0.0017004
-0.00150222
-0.00130891
-0.00112527
-0.000953617
-0.000796282
-0.000655983
-0.000533322
-0.000427462
-0.000337071
-0.000260867
-0.00019739
-0.000145224
-0.000102969
-6.93404e-05
-4.28247e-05
-2.24444e-05
-6.49785e-06
-0.00160424
-0.00184784
-0.00207698
-0.00228866
-0.00247887
-0.00264239
-0.00277309
-0.00286815
-0.00292577
-0.0029466
-0.00293582
-0.00290069
-0.00285022
-0.00279456
-0.0027392
-0.00268471
-0.00262918
-0.00255986
-0.0024619
-0.00232832
-0.00216148
-0.00197007
-0.00176386
-0.00155442
-0.00135061
-0.00115776
-0.000978391
-0.000814817
-0.000668805
-0.000541363
-0.000431773
-0.000338559
-0.000260087
-0.000194845
-0.000141585
-9.87809e-05
-6.52693e-05
-3.91767e-05
-1.98337e-05
-5.13355e-06
-0.00159133
-0.00183344
-0.00205823
-0.00226439
-0.00244865
-0.00260596
-0.00273127
-0.00282134
-0.00287452
-0.00289222
-0.00288015
-0.00284584
-0.00279833
-0.00274781
-0.00270057
-0.00265756
-0.00261399
-0.00255633
-0.00246881
-0.002344
-0.0021827
-0.00199308
-0.00178579
-0.00157358
-0.00136581
-0.00116925
-0.000986912
-0.000820933
-0.000672753
-0.000543546
-0.000432564
-0.000338553
-0.00025939
-0.000193851
-0.000140247
-9.73703e-05
-6.35949e-05
-3.76585e-05
-1.85454e-05
-4.29365e-06
)
;

boundaryField
{
    inlet
    {
        type            zeroGradient;
    }
    outlet
    {
        type            fixedValue;
        value           uniform 0;
    }
    lowerWall
    {
        type            zeroGradient;
    }
    upperWall
    {
        type            zeroGradient;
    }
    defaultFaces
    {
        type            empty;
    }
}


// ************************************************************************* //
