/*--------------------------------*- C++ -*----------------------------------*\
| =========                 |                                                 |
| \\      /  F ield         | OpenFOAM: The Open Source CFD Toolbox           |
|  \\    /   O peration     | Version:  2112                                  |
|   \\  /    A nd           | Website:  www.openfoam.com                      |
|    \\/     M anipulation  |                                                 |
\*---------------------------------------------------------------------------*/
FoamFile
{
    version     2.0;
    format      ascii;
    arch        "LSB;label=32;scalar=64";
    class       volVectorField;
    location    "0.41";
    object      U;
}
// * * * * * * * * * * * * * * * * * * * * * * * * * * * * * * * * * * * * * //

dimensions      [0 1 -1 0 0 0 0];

internalField   nonuniform List<vector> 
1880
(
(0.0989027 0.000580171 0)
(0.098543 0.00119563 0)
(0.0971613 0.00126891 0)
(0.0959937 0.00138474 0)
(0.0939588 0.00131322 0)
(0.0925292 0.00144191 0)
(0.090407 0.00134869 0)
(0.0890029 0.00151933 0)
(0.0867799 0.00133993 0)
(0.0853748 0.00151001 0)
(0.0830865 0.00130049 0)
(0.081583 0.00154342 0)
(0.0792279 0.00129152 0)
(0.0776402 0.00152666 0)
(0.0751717 0.00132152 0)
(0.0735287 0.00158623 0)
(0.0706743 0.0014196 0)
(0.0692342 0.00159547 0)
(0.065605 0.0015423 0)
(0.0644874 0.00172196 0)
(0.0599152 0.0018284 0)
(0.0587783 0.00200806 0)
(0.0533845 0.00196352 0)
(0.051854 0.00248404 0)
(0.0455412 0.00236805 0)
(0.0428944 0.00341679 0)
(0.0357333 0.00294408 0)
(0.0308067 0.00388955 0)
(0.0241347 0.00351714 0)
(0.0159468 0.00288347 0)
(0.0996621 0.000774836 0)
(0.100594 0.00130333 0)
(0.100414 0.00179933 0)
(0.101049 0.00159375 0)
(0.10117 0.00205606 0)
(0.100951 0.001725 0)
(0.101618 0.00224662 0)
(0.100536 0.00191137 0)
(0.101691 0.00239112 0)
(0.100175 0.00207809 0)
(0.10125 0.00247587 0)
(0.0998028 0.00227134 0)
(0.100501 0.00251321 0)
(0.0990673 0.00268151 0)
(0.0996753 0.00246336 0)
(0.0977783 0.00316406 0)
(0.0984812 0.00263306 0)
(0.0964909 0.00339565 0)
(0.0964218 0.00340672 0)
(0.0946994 0.00352594 0)
(0.0942018 0.0041505 0)
(0.091356 0.00435961 0)
(0.0921807 0.00476999 0)
(0.0865247 0.0055333 0)
(0.088646 0.00636937 0)
(0.0810585 0.00655259 0)
(0.0831605 0.00844198 0)
(0.0732769 0.00894924 0)
(0.0764056 0.0100345 0)
(0.0608597 0.011981 0)
(0.100067 0.000317938 0)
(0.0999907 0.000580604 0)
(0.100716 0.00113556 0)
(0.100495 0.000935868 0)
(0.101415 0.00162844 0)
(0.100934 0.00105841 0)
(0.101876 0.0018453 0)
(0.101246 0.00144869 0)
(0.102119 0.00181086 0)
(0.10154 0.00197203 0)
(0.102225 0.00190298 0)
(0.101757 0.00208796 0)
(0.102253 0.00254837 0)
(0.10166 0.00188847 0)
(0.102495 0.00324914 0)
(0.101058 0.00222653 0)
(0.102567 0.00347503 0)
(0.100588 0.00294743 0)
(0.10181 0.00420017 0)
(0.100333 0.00316074 0)
(0.100765 0.00580244 0)
(0.0990729 0.00374122 0)
(0.100201 0.00679385 0)
(0.096618 0.0060066 0)
(0.099068 0.00796945 0)
(0.0943231 0.00794717 0)
(0.0963937 0.0117303 0)
(0.0912809 0.00948574 0)
(0.0930176 0.0154937 0)
(0.0859316 0.0141566 0)
(0.100012 0.000441021 0)
(0.099967 0.000419718 0)
(0.100514 0.0011721 0)
(0.100184 0.000957798 0)
(0.101049 0.00159696 0)
(0.100562 0.00121405 0)
(0.101412 0.00183275 0)
(0.10099 0.0015291 0)
(0.101608 0.00195434 0)
(0.101292 0.00192665 0)
(0.101908 0.00215968 0)
(0.101391 0.00212968 0)
(0.102198 0.0026829 0)
(0.101445 0.00216374 0)
(0.102356 0.00329343 0)
(0.101448 0.00260705 0)
(0.102322 0.00361347 0)
(0.101322 0.00342542 0)
(0.102223 0.0043266 0)
(0.100981 0.00394916 0)
(0.101823 0.00580487 0)
(0.100739 0.00488081 0)
(0.101092 0.00691924 0)
(0.0998594 0.0071958 0)
(0.100886 0.00841013 0)
(0.0981998 0.00943944 0)
(0.100259 0.0115158 0)
(0.0973944 0.0127183 0)
(0.098075 0.0148961 0)
(0.0960662 0.0170249 0)
(0.0999943 0.000289641 0)
(0.100048 0.0002462 0)
(0.1003 0.000879764 0)
(0.100256 0.000593598 0)
(0.10065 0.00136648 0)
(0.10059 0.000797258 0)
(0.101002 0.00164427 0)
(0.10097 0.00112467 0)
(0.101251 0.0017761 0)
(0.101264 0.00148743 0)
(0.101516 0.00214056 0)
(0.101512 0.00154936 0)
(0.101679 0.00288057 0)
(0.101756 0.00154138 0)
(0.101797 0.00348429 0)
(0.101903 0.00218032 0)
(0.101793 0.00375832 0)
(0.101974 0.00308267 0)
(0.101757 0.00457404 0)
(0.101808 0.00365385 0)
(0.10164 0.00607972 0)
(0.101711 0.00475984 0)
(0.101264 0.00732412 0)
(0.101361 0.00694029 0)
(0.101063 0.00911861 0)
(0.100851 0.00903052 0)
(0.100784 0.012533 0)
(0.100655 0.0119369 0)
(0.100371 0.0162892 0)
(0.10039 0.0163939 0)
(0.100035 0.000244661 0)
(0.0999842 0.000256617 0)
(0.100309 0.000700142 0)
(0.100165 0.000638035 0)
(0.100536 0.00112983 0)
(0.10052 0.000874502 0)
(0.100764 0.00147051 0)
(0.100967 0.00112657 0)
(0.100989 0.00171126 0)
(0.101241 0.00144323 0)
(0.101341 0.00206038 0)
(0.101456 0.00163728 0)
(0.10154 0.00268504 0)
(0.101806 0.00175484 0)
(0.101622 0.00330745 0)
(0.102072 0.002367 0)
(0.101721 0.00367552 0)
(0.102166 0.00332349 0)
(0.10191 0.00443128 0)
(0.102099 0.00408346 0)
(0.101901 0.00582383 0)
(0.102262 0.00531196 0)
(0.101782 0.0071196 0)
(0.102111 0.00741176 0)
(0.102024 0.00897648 0)
(0.101905 0.00963428 0)
(0.10213 0.0118683 0)
(0.102358 0.0128563 0)
(0.102197 0.015429 0)
(0.102785 0.0167822 0)
(0.100017 0.000170804 0)
(0.100021 0.00019494 0)
(0.100234 0.000588233 0)
(0.100177 0.000448237 0)
(0.10043 0.00100051 0)
(0.100465 0.000642452 0)
(0.100664 0.00132429 0)
(0.100895 0.000891493 0)
(0.100888 0.00156877 0)
(0.101225 0.00117728 0)
(0.101223 0.00195169 0)
(0.1015 0.00137456 0)
(0.101472 0.00254957 0)
(0.101854 0.00160179 0)
(0.101667 0.00310119 0)
(0.102169 0.00226052 0)
(0.101832 0.00356544 0)
(0.102413 0.00313995 0)
(0.102117 0.00440921 0)
(0.102468 0.00394753 0)
(0.102302 0.0057322 0)
(0.1028 0.00524041 0)
(0.10239 0.00710177 0)
(0.102988 0.00716018 0)
(0.102766 0.00908327 0)
(0.103217 0.00918868 0)
(0.103247 0.0119302 0)
(0.103905 0.0121802 0)
(0.10393 0.0152738 0)
(0.104915 0.0159178 0)
(0.100054 9.25986e-05 0)
(0.0999711 0.000225552 0)
(0.100236 0.000410173 0)
(0.100143 0.000445648 0)
(0.100386 0.000764142 0)
(0.100448 0.000611436 0)
(0.100593 0.00110488 0)
(0.100878 0.000810596 0)
(0.100863 0.00139127 0)
(0.101181 0.00107965 0)
(0.101272 0.00174416 0)
(0.101473 0.00135532 0)
(0.101558 0.00226128 0)
(0.101897 0.00166057 0)
(0.101809 0.00280115 0)
(0.10227 0.00230178 0)
(0.102093 0.00332432 0)
(0.102592 0.00315519 0)
(0.102497 0.00417546 0)
(0.102811 0.00400332 0)
(0.102822 0.00543021 0)
(0.103285 0.00531516 0)
(0.10318 0.00678584 0)
(0.103659 0.00713782 0)
(0.103789 0.00868913 0)
(0.104255 0.00918086 0)
(0.104504 0.0112194 0)
(0.105278 0.0120127 0)
(0.105627 0.0143487 0)
(0.106571 0.0154079 0)
(0.100045 5.89039e-05 0)
(0.0999772 0.000168467 0)
(0.10021 0.000336057 0)
(0.100144 0.000323824 0)
(0.100369 0.000634695 0)
(0.10043 0.000475869 0)
(0.100588 0.000920847 0)
(0.100863 0.000679247 0)
(0.100871 0.00118282 0)
(0.1012 0.000933894 0)
(0.101311 0.00152553 0)
(0.101521 0.00122058 0)
(0.10167 0.0020002 0)
(0.101963 0.00156766 0)
(0.102016 0.0025163 0)
(0.102405 0.00218242 0)
(0.102368 0.00308983 0)
(0.102854 0.0029828 0)
(0.102876 0.00394206 0)
(0.103204 0.00385131 0)
(0.10335 0.0051173 0)
(0.103834 0.00512357 0)
(0.103903 0.00648816 0)
(0.104437 0.00679323 0)
(0.104702 0.00834746 0)
(0.105303 0.00870369 0)
(0.105704 0.0106753 0)
(0.106556 0.0113216 0)
(0.107129 0.0134998 0)
(0.108205 0.0143953 0)
(0.100052 6.23853e-06 0)
(0.0999717 0.000160535 0)
(0.100191 0.000212531 0)
(0.100155 0.00026442 0)
(0.100352 0.000450959 0)
(0.100445 0.00037949 0)
(0.1006 0.000705593 0)
(0.100863 0.000558349 0)
(0.100939 0.000946728 0)
(0.101207 0.00081253 0)
(0.10142 0.00124458 0)
(0.101583 0.00113163 0)
(0.101807 0.00166893 0)
(0.10209 0.00149378 0)
(0.102229 0.00217968 0)
(0.10258 0.00206458 0)
(0.102687 0.00277808 0)
(0.103123 0.00282401 0)
(0.103293 0.00360611 0)
(0.103609 0.00369476 0)
(0.1039 0.00469343 0)
(0.104377 0.00492351 0)
(0.104643 0.0060246 0)
(0.105168 0.00647229 0)
(0.105607 0.00775671 0)
(0.106281 0.00829259 0)
(0.106833 0.00985903 0)
(0.107732 0.0106506 0)
(0.108522 0.0124176 0)
(0.109607 0.0134257 0)
(0.100044 -1.29674e-05 0)
(0.0999783 0.000102504 0)
(0.100173 0.000129787 0)
(0.100172 0.000156709 0)
(0.100356 0.000295675 0)
(0.100471 0.000251821 0)
(0.100635 0.000489415 0)
(0.100899 0.000418388 0)
(0.101011 0.000700579 0)
(0.10127 0.000648523 0)
(0.101531 0.000978324 0)
(0.101688 0.000955106 0)
(0.10197 0.00136837 0)
(0.102245 0.00131568 0)
(0.102462 0.00185141 0)
(0.102803 0.00185304 0)
(0.102997 0.0024425 0)
(0.103442 0.002568 0)
(0.103707 0.0032355 0)
(0.104036 0.00341082 0)
(0.104441 0.0042463 0)
(0.104944 0.00455673 0)
(0.105331 0.00552262 0)
(0.105908 0.00597764 0)
(0.106456 0.00712818 0)
(0.107197 0.00766594 0)
(0.107892 0.00901236 0)
(0.108818 0.00978946 0)
(0.109751 0.0112878 0)
(0.110899 0.0122322 0)
(0.100038 -4.18887e-05 0)
(0.0999902 5.72718e-05 0)
(0.100158 2.8632e-05 0)
(0.100199 6.03086e-05 0)
(0.10037 0.000128786 0)
(0.100511 0.000123398 0)
(0.100695 0.000275086 0)
(0.100947 0.00027203 0)
(0.101115 0.000453997 0)
(0.101352 0.000490723 0)
(0.101662 0.0006995 0)
(0.101829 0.000783587 0)
(0.102136 0.00106237 0)
(0.102442 0.00112174 0)
(0.102706 0.0015237 0)
(0.103045 0.00161975 0)
(0.103333 0.00208535 0)
(0.103773 0.00229879 0)
(0.104127 0.00282581 0)
(0.104478 0.00310121 0)
(0.104968 0.00375642 0)
(0.105508 0.00415485 0)
(0.105999 0.00495372 0)
(0.106613 0.0054573 0)
(0.107262 0.00640601 0)
(0.108057 0.00700897 0)
(0.10886 0.0080969 0)
(0.109812 0.00887674 0)
(0.110857 0.0101016 0)
(0.112038 0.0110286 0)
(0.10003 -5.87701e-05 0)
(0.100005 -1.12352e-05 0)
(0.100155 -7.58417e-05 0)
(0.100235 -7.05543e-05 0)
(0.100407 -5.75235e-05 0)
(0.100576 -5.16213e-05 0)
(0.100777 2.80739e-05 0)
(0.101036 5.94116e-05 0)
(0.101237 0.000170618 0)
(0.101477 0.000239728 0)
(0.101815 0.000384989 0)
(0.102 0.000498802 0)
(0.10233 0.000712473 0)
(0.102667 0.000816157 0)
(0.102964 0.00113177 0)
(0.103323 0.00127616 0)
(0.103672 0.0016555 0)
(0.104126 0.00190724 0)
(0.10455 0.00234433 0)
(0.104927 0.00265144 0)
(0.105484 0.00319598 0)
(0.106073 0.00360969 0)
(0.106631 0.00429851 0)
(0.107292 0.00479163 0)
(0.108024 0.00560161 0)
(0.108856 0.00619599 0)
(0.109753 0.00709523 0)
(0.11073 0.00782967 0)
(0.111841 0.00884731 0)
(0.113062 0.00969 0)
(0.100023 -8.03397e-05 0)
(0.10002 -8.16594e-05 0)
(0.100157 -0.00018414 0)
(0.100273 -0.000198483 0)
(0.100455 -0.000227264 0)
(0.100648 -0.000208788 0)
(0.100878 -0.00017763 0)
(0.101139 -0.00011472 0)
(0.101377 -5.66875e-05 0)
(0.101629 4.34886e-05 0)
(0.101984 0.000135241 0)
(0.102205 0.0002726 0)
(0.102546 0.000435344 0)
(0.102919 0.000564904 0)
(0.10325 0.000811231 0)
(0.103622 0.000984815 0)
(0.104034 0.00128179 0)
(0.104502 0.00156201 0)
(0.104976 0.00190977 0)
(0.105395 0.00223252 0)
(0.106001 0.00267881 0)
(0.106634 0.00308835 0)
(0.107252 0.00366399 0)
(0.107946 0.00414952 0)
(0.108749 0.00481622 0)
(0.109612 0.00540014 0)
(0.110576 0.00613409 0)
(0.111579 0.00680697 0)
(0.112739 0.00763712 0)
(0.113986 0.00839996 0)
(0.100017 -0.000108602 0)
(0.100044 -0.00018824 0)
(0.100186 -0.000344522 0)
(0.100344 -0.00040208 0)
(0.100553 -0.00047526 0)
(0.100775 -0.000467161 0)
(0.101034 -0.000475031 0)
(0.101305 -0.000414124 0)
(0.101567 -0.000390493 0)
(0.101835 -0.00030152 0)
(0.102199 -0.000241977 0)
(0.102448 -0.000118954 0)
(0.102803 9.00337e-06 0)
(0.103205 0.000138584 0)
(0.103563 0.000329265 0)
(0.103951 0.000507915 0)
(0.104412 0.000749735 0)
(0.104895 0.00102401 0)
(0.105411 0.00131372 0)
(0.105871 0.00161935 0)
(0.106516 0.00200119 0)
(0.107185 0.00238013 0)
(0.107853 0.0028696 0)
(0.108573 0.00332091 0)
(0.109443 0.00388175 0)
(0.110329 0.00441935 0)
(0.111345 0.00502647 0)
(0.112366 0.00561984 0)
(0.113556 0.00631007 0)
(0.114815 0.00697928 0)
(0.100012 -0.000133089 0)
(0.100064 -0.000271478 0)
(0.100224 -0.000457305 0)
(0.10043 -0.000531082 0)
(0.10068 -0.000618294 0)
(0.100933 -0.000611798 0)
(0.101227 -0.000639518 0)
(0.101504 -0.000583406 0)
(0.101794 -0.000587112 0)
(0.102079 -0.000509642 0)
(0.102456 -0.000473517 0)
(0.102734 -0.000365308 0)
(0.103112 -0.000258784 0)
(0.103533 -0.000131096 0)
(0.103935 1.5153e-05 0)
(0.104334 0.000191618 0)
(0.104844 0.000384606 0)
(0.105335 0.00064319 0)
(0.105888 0.000881935 0)
(0.10639 0.00115735 0)
(0.107082 0.00147839 0)
(0.107761 0.00181468 0)
(0.108484 0.00221272 0)
(0.10921 0.00263109 0)
(0.110141 0.00309429 0)
(0.111034 0.00357844 0)
(0.112103 0.0040687 0)
(0.113135 0.00457505 0)
(0.114369 0.00512411 0)
(0.115607 0.00569777 0)
(0.100008 -0.000220165 0)
(0.100113 -0.000522361 0)
(0.100325 -0.000794593 0)
(0.100588 -0.000910383 0)
(0.10089 -0.00101479 0)
(0.101161 -0.00101981 0)
(0.10149 -0.00105949 0)
(0.101762 -0.00102194 0)
(0.102085 -0.00104432 0)
(0.10238 -0.000986078 0)
(0.10278 -0.000958445 0)
(0.103068 -0.000866869 0)
(0.103489 -0.000776323 0)
(0.103903 -0.000664532 0)
(0.104354 -0.000558734 0)
(0.104741 -0.000398571 0)
(0.105305 -0.000242205 0)
(0.10578 -2.80343e-05 0)
(0.106384 0.000161447 0)
(0.106895 0.000395538 0)
(0.107647 0.000671322 0)
(0.108298 0.000961484 0)
(0.109097 0.0012878 0)
(0.109809 0.00165608 0)
(0.110816 0.00203499 0)
(0.111684 0.00244628 0)
(0.11282 0.00284906 0)
(0.113818 0.0032842 0)
(0.115123 0.00373743 0)
(0.116321 0.00421713 0)
(0.0999987 -0.000243709 0)
(0.100223 -0.000589956 0)
(0.10056 -0.000844715 0)
(0.10094 -0.00095867 0)
(0.101302 -0.00105243 0)
(0.101603 -0.00107524 0)
(0.101939 -0.00112663 0)
(0.102206 -0.00112362 0)
(0.102538 -0.00116804 0)
(0.102832 -0.0011282 0)
(0.103227 -0.00111507 0)
(0.103502 -0.00105922 0)
(0.103928 -0.00099201 0)
(0.104297 -0.000908203 0)
(0.104757 -0.000840058 0)
(0.105104 -0.000706733 0)
(0.105662 -0.000584864 0)
(0.106086 -0.000410373 0)
(0.1067 -0.000256398 0)
(0.107198 -5.95151e-05 0)
(0.107951 0.000169965 0)
(0.10855 0.000407916 0)
(0.10936 0.000669449 0)
(0.110053 0.000996775 0)
(0.111069 0.00130159 0)
(0.111929 0.00163048 0)
(0.1131 0.00193319 0)
(0.114096 0.00227841 0)
(0.115442 0.0026302 0)
(0.116602 0.00302907 0)
(0.0999737 -0.000695717 0)
(0.10035 -0.00135815 0)
(0.100695 -0.00156861 0)
(0.101107 -0.00161671 0)
(0.101326 -0.00167493 0)
(0.101551 -0.00171482 0)
(0.101658 -0.00175591 0)
(0.101819 -0.00176329 0)
(0.101886 -0.00178824 0)
(0.102028 -0.00174199 0)
(0.102087 -0.00170769 0)
(0.102199 -0.00165538 0)
(0.102283 -0.00159905 0)
(0.102441 -0.0015387 0)
(0.102499 -0.00147896 0)
(0.10265 -0.00135318 0)
(0.102822 -0.00125037 0)
(0.103073 -0.00113004 0)
(0.103279 -0.00102389 0)
(0.103601 -0.000861636 0)
(0.103928 -0.0006805 0)
(0.1044 -0.00048449 0)
(0.104883 -0.000304788 0)
(0.105535 -7.291e-05 0)
(0.1062 0.000126135 0)
(0.10702 0.000365975 0)
(0.107875 0.000594993 0)
(0.108923 0.00087617 0)
(0.11008 0.00112887 0)
(0.111424 0.00140745 0)
(0.0990161 -0.000604207 0)
(0.0984597 -0.00114233 0)
(0.0974127 -0.00127555 0)
(0.0960229 -0.00128521 0)
(0.0943689 -0.00130226 0)
(0.0927758 -0.00131547 0)
(0.091145 -0.00132356 0)
(0.0896205 -0.00133102 0)
(0.0879967 -0.00130211 0)
(0.0865339 -0.0012414 0)
(0.0849903 -0.00121371 0)
(0.0835758 -0.00118072 0)
(0.0821072 -0.00112125 0)
(0.0808317 -0.00105535 0)
(0.0794642 -0.00100678 0)
(0.0783239 -0.000958789 0)
(0.0771179 -0.000909549 0)
(0.0761522 -0.000829216 0)
(0.0751052 -0.000726309 0)
(0.0743953 -0.00063182 0)
(0.0735856 -0.00058477 0)
(0.0731236 -0.000532496 0)
(0.0725266 -0.000429928 0)
(0.0723992 -0.00027756 0)
(0.0721445 -0.000131328 0)
(0.0724165 -1.48012e-05 0)
(0.0724645 6.23721e-05 0)
(0.0730919 0.000122339 0)
(0.0734361 0.000202672 0)
(0.0744514 0.000295737 0)
(0.0109792 0.00163734 0)
(0.0406383 0.0139248 0)
(0.0307314 0.0110165 0)
(0.062914 0.0255674 8.42094e-22)
(0.0453761 0.0202917 6.84227e-22)
(0.0813103 0.033994 0)
(0.0599033 0.0281981 2.96467e-22)
(0.0982665 0.0401322 2.03075e-23)
(0.0781107 0.0359131 6.2235e-22)
(0.122194 0.0435354 0)
(0.065248 0.0117866 0)
(0.0737911 0.0206936 0)
(0.0800166 0.0231844 0)
(0.0872539 0.032509 0)
(0.0909106 0.0313228 0)
(0.101804 0.0415956 1.76102e-22)
(0.106089 0.0405287 6.08708e-23)
(0.115334 0.0483776 -8.47651e-23)
(0.121066 0.0454907 -4.92645e-22)
(0.13718 0.0550873 -4.63183e-22)
(0.0879061 0.020915 0)
(0.0896173 0.0212206 0)
(0.0955894 0.029818 0)
(0.0988035 0.0316865 0)
(0.104183 0.0359165 0)
(0.107682 0.0336436 -1.76101e-22)
(0.116292 0.0433185 -6.08702e-23)
(0.120758 0.041785 8.47649e-23)
(0.1271 0.040269 2.61775e-22)
(0.136075 0.039536 4.63189e-22)
(0.096126 0.0211939 -3.70829e-22)
(0.0979379 0.0238254 0)
(0.100831 0.0256568 -3.00153e-22)
(0.104774 0.0306374 -2.47716e-22)
(0.109412 0.0339619 -1.7758e-22)
(0.112606 0.0333637 0)
(0.118116 0.0372294 0)
(0.125593 0.0417859 1.26399e-22)
(0.131292 0.040325 2.71207e-22)
(0.136046 0.0365778 4.12933e-22)
(0.0997031 0.0214968 3.70829e-22)
(0.102678 0.0220965 0)
(0.10438 0.0270743 3.00154e-22)
(0.107951 0.0279496 2.47717e-22)
(0.111842 0.0322702 1.7758e-22)
(0.115981 0.030577 0)
(0.119412 0.0338788 0)
(0.126493 0.03516 -1.26399e-22)
(0.132829 0.0360506 -2.71206e-22)
(0.137879 0.0311776 -4.12936e-22)
(0.102822 0.0202862 0)
(0.104858 0.0219118 -2.68661e-22)
(0.107106 0.0243425 0)
(0.11065 0.0256653 -1.75332e-22)
(0.114215 0.029379 0)
(0.118185 0.0289573 0)
(0.121897 0.0306018 0)
(0.12742 0.0319492 -1.47099e-22)
(0.133294 0.0331218 0)
(0.13769 0.0283004 0)
(0.104934 0.0195932 2.64487e-22)
(0.107353 0.0200846 5.05968e-22)
(0.109593 0.0234088 1.96833e-22)
(0.112621 0.0237113 1.75332e-22)
(0.11573 0.0268038 0)
(0.119884 0.0262336 -2.14766e-23)
(0.123427 0.0279655 0)
(0.12828 0.0276665 1.47099e-22)
(0.133731 0.02934 0)
(0.138148 0.0249511 0)
(0.10716 0.0181005 -2.64487e-22)
(0.1092 0.0189777 -2.37307e-22)
(0.111502 0.0213189 -1.96833e-22)
(0.114506 0.0217062 0)
(0.117576 0.0241724 0)
(0.121237 0.0239269 2.14766e-23)
(0.124817 0.0250937 0)
(0.128947 0.02476 0)
(0.133661 0.0260411 0)
(0.138147 0.0223793 0)
(0.108963 0.0168683 0)
(0.110959 0.0173697 -1.86302e-22)
(0.113271 0.0195933 0)
(0.116066 0.0198093 -1.03555e-22)
(0.118897 0.0217302 0)
(0.122339 0.0214036 0)
(0.125711 0.0227093 7.79146e-23)
(0.129611 0.0217891 1.58791e-22)
(0.133824 0.0225326 0)
(0.13779 0.0197251 3.32751e-22)
(0.110613 0.0153544 0)
(0.112478 0.0159203 1.86303e-22)
(0.114711 0.0176675 0)
(0.117384 0.0178541 1.03555e-22)
(0.120148 0.0194546 0)
(0.123238 0.0191403 0)
(0.126454 0.0200286 -7.79147e-23)
(0.130118 0.0192551 -1.58792e-22)
(0.13373 0.0198296 0)
(0.137245 0.0174794 -3.32752e-22)
(0.11203 0.0138768 8.66583e-23)
(0.113822 0.0143313 0)
(0.116009 0.0158336 0)
(0.118524 0.0159435 3.64418e-23)
(0.121107 0.0172001 0)
(0.124054 0.0169062 0)
(0.127057 0.0177375 0)
(0.130333 0.0168328 -7.86541e-23)
(0.133631 0.0170076 0)
(0.136906 0.0151358 0)
(0.113272 0.0123598 -7.80674e-24)
(0.114997 0.0127824 0)
(0.117085 0.0140059 5.03191e-23)
(0.119477 0.0141245 -5.80202e-24)
(0.12195 0.0151359 0)
(0.12466 0.0148305 0)
(0.127492 0.015409 -4.54305e-23)
(0.130562 0.0146836 7.86542e-23)
(0.133536 0.0147344 -1.11248e-22)
(0.136414 0.0131021 -1.46285e-22)
(0.114369 0.0108041 -6.65725e-24)
(0.116046 0.0111816 0)
(0.118051 0.0121942 -5.67047e-24)
(0.120317 0.0122764 -4.74277e-24)
(0.12267 0.0130659 4.85115e-24)
(0.125228 0.0128319 1.91308e-23)
(0.127864 0.0132649 -7.66458e-25)
(0.130649 0.012535 -7.61133e-23)
(0.133395 0.0124458 3.64335e-24)
(0.136066 0.0111014 5.83158e-24)
(0.115331 0.00931083 -7.21946e-23)
(0.116954 0.00965451 0)
(0.118872 0.0104931 -4.46487e-23)
(0.121022 0.0105956 -2.58972e-23)
(0.123259 0.0112168 -4.85115e-24)
(0.125656 0.011001 -4.00825e-23)
(0.128156 0.0112915 4.61971e-23)
(0.130745 0.010681 7.61134e-23)
(0.133256 0.0105233 1.07605e-22)
(0.13571 0.00933896 1.40454e-22)
(0.116212 0.00772986 0)
(0.117804 0.00804026 0)
(0.119654 0.00872177 0)
(0.121696 0.00881597 0)
(0.123839 0.00929299 0)
(0.126096 0.00912291 2.09517e-23)
(0.128428 0.00931158 0)
(0.130818 0.00875785 0)
(0.133158 0.00855747 0)
(0.135437 0.0075743 0)
(0.117025 0.00631019 0)
(0.118538 0.00660362 0)
(0.120334 0.00717662 0)
(0.122256 0.00729755 0)
(0.124328 0.00767667 0)
(0.126448 0.00754196 1.14854e-23)
(0.128681 0.00764883 0)
(0.130901 0.00717639 0)
(0.133099 0.00694475 0)
(0.135211 0.00609865 0)
(0.117833 0.00469664 0)
(0.119247 0.00495195 0)
(0.121049 0.00540282 1.50162e-23)
(0.122786 0.00552014 0)
(0.124825 0.00580764 -1.72798e-24)
(0.126725 0.00571223 -1.14854e-23)
(0.128874 0.00577266 0)
(0.130835 0.00538781 -3.46642e-23)
(0.132941 0.00516695 0)
(0.134799 0.00448874 0)
(0.118143 0.00341245 0)
(0.119206 0.00366009 0)
(0.121029 0.00403417 -1.50162e-23)
(0.12238 0.00417667 0)
(0.124456 0.00439624 1.72798e-24)
(0.125948 0.004333 0)
(0.128135 0.00433402 0)
(0.129643 0.00400739 3.46644e-23)
(0.131777 0.00376049 0)
(0.133132 0.00319369 0)
(0.112868 0.00163349 -6.32423e-24)
(0.113352 0.00180179 -4.93082e-24)
(0.115083 0.00203886 -3.32795e-24)
(0.115751 0.00217247 0)
(0.117774 0.00231914 5.78285e-25)
(0.118544 0.00231754 0)
(0.120743 0.00231822 5.45628e-24)
(0.121476 0.00212899 0)
(0.123677 0.00195269 1.12968e-23)
(0.124123 0.00159382 1.45334e-23)
(0.0751525 0.000394022 6.3235e-24)
(0.0753699 0.000488304 4.93021e-24)
(0.0765223 0.000595501 3.32752e-24)
(0.0770468 0.000657661 0)
(0.0786008 0.000668623 -5.78201e-25)
(0.0792489 0.000624609 0)
(0.0809728 0.000528179 -5.45539e-24)
(0.0814182 0.000385211 0)
(0.0829833 0.000211874 -1.12947e-23)
(0.0828191 1.58478e-05 -1.45306e-23)
(0.00997852 -0.00451793 0)
(0.0205161 0.0042337 0)
(0.0127503 0.0089936 0)
(0.0146936 0.000655354 0)
(-0.000352106 0.0115627 0)
(-0.0463057 0.0177276 0)
(-0.0844981 0.0147688 0)
(-0.115065 0.0106347 0)
(-0.130776 0.00615794 0)
(-0.137355 0.00241353 0)
(-0.134531 -0.00038029 0)
(-0.127153 -0.00252183 0)
(-0.114702 -0.00382157 0)
(-0.100548 -0.00486537 0)
(-0.0849412 -0.0050354 0)
(-0.0650254 -0.00589041 0)
(-0.0485005 -0.00593544 0)
(-0.0263706 -0.00630836 0)
(-0.00755382 -0.00560912 0)
(0.0110858 -0.00487585 0)
(0.0263783 -0.00369983 0)
(0.0387583 -0.00253942 0)
(0.0479125 -0.00151865 0)
(0.0544653 -0.000722709 0)
(0.0589724 -0.000122653 0)
(0.0619459 0.000340659 0)
(0.0636132 0.000739675 0)
(0.0642132 0.00111861 0)
(0.0637476 0.00148512 0)
(0.0623291 0.00174463 0)
(0.0600325 0.00182569 0)
(0.0572222 0.00171922 0)
(0.0541897 0.00147399 0)
(0.0513079 0.00116438 0)
(0.0487719 0.000850607 0)
(0.0466612 0.0005789 0)
(0.0450899 0.000370253 0)
(0.0437601 0.000216634 0)
(0.0430376 0.0001265 0)
(0.0420581 6.38436e-05 0)
(0.00887903 -0.0185074 0)
(0.0148083 -0.00515432 0)
(0.0230822 -0.00540379 0)
(-0.00745421 0.0097199 0)
(-0.0444366 0.0327156 0)
(-0.0816387 0.0386241 0)
(-0.10336 0.0318912 0)
(-0.125517 0.0224314 0)
(-0.130598 0.0106671 0)
(-0.134702 0.00118404 0)
(-0.125858 -0.00735411 0)
(-0.118176 -0.0122069 0)
(-0.101796 -0.015875 0)
(-0.0884495 -0.0174828 0)
(-0.0715605 -0.0201348 0)
(-0.0529356 -0.0209979 0)
(-0.0348349 -0.02203 0)
(-0.0138044 -0.023073 0)
(0.00544484 -0.0213876 0)
(0.0243413 -0.0193232 0)
(0.0403912 -0.0160145 0)
(0.0538833 -0.0125744 0)
(0.064376 -0.0094308 0)
(0.0724517 -0.00690177 0)
(0.0785909 -0.00497074 0)
(0.0834283 -0.00351903 0)
(0.087154 -0.00230597 0)
(0.0901482 -0.00122599 0)
(0.0925255 -0.00013689 0)
(0.0943644 0.000876138 0)
(0.095584 0.0017784 0)
(0.096051 0.00239537 0)
(0.0958764 0.00271676 0)
(0.0950328 0.00265485 0)
(0.0940253 0.00242537 0)
(0.0927499 0.00200088 0)
(0.0918376 0.00164871 0)
(0.090786 0.00122676 0)
(0.0903295 0.00101307 0)
(0.0895007 0.000722541 0)
(0.00626494 -0.0226177 0)
(-0.00873935 -0.00574537 0)
(-0.0146988 0.0247362 0)
(-0.033407 0.0458055 0)
(-0.0562286 0.061187 0)
(-0.0737644 0.0579617 0)
(-0.086299 0.0458436 0)
(-0.0990143 0.0313801 0)
(-0.100772 0.0144339 0)
(-0.101463 -1.631e-05 0)
(-0.0921628 -0.0125694 0)
(-0.0829796 -0.0201922 0)
(-0.0690025 -0.0255977 0)
(-0.0556783 -0.0278273 0)
(-0.040953 -0.0299506 0)
(-0.0258637 -0.0328614 0)
(-0.00942779 -0.034692 0)
(0.00734125 -0.0357379 0)
(0.0236963 -0.0340149 0)
(0.039197 -0.0305537 0)
(0.0523763 -0.0255049 0)
(0.063503 -0.0200724 0)
(0.0723259 -0.0150244 0)
(0.0790755 -0.011006 0)
(0.0841184 -0.00804271 0)
(0.0882653 -0.00590924 0)
(0.0916718 -0.00420581 0)
(0.0945273 -0.00284961 0)
(0.0968902 -0.00162741 0)
(0.0990954 -0.000518225 0)
(0.101282 0.000622112 0)
(0.103351 0.001598 0)
(0.105007 0.00236321 0)
(0.10604 0.00267605 0)
(0.106402 0.00265129 0)
(0.106296 0.00229479 0)
(0.105852 0.00186919 0)
(0.105402 0.00138208 0)
(0.104968 0.00106856 0)
(0.104613 0.000723952 0)
(0.00872949 -0.0139247 0)
(-0.0118507 0.0118527 0)
(-0.0121347 0.0150526 0)
(-0.0299673 0.0456809 0)
(-0.0462806 0.0611159 0)
(-0.0540097 0.0591999 0)
(-0.0589826 0.0487319 0)
(-0.0654827 0.033826 0)
(-0.0654112 0.0141429 0)
(-0.0643116 -0.00428416 0)
(-0.0568344 -0.0202986 0)
(-0.0477527 -0.0293793 0)
(-0.0351517 -0.0354228 0)
(-0.0236618 -0.0380792 0)
(-0.0103745 -0.0407937 0)
(0.00412363 -0.0434966 0)
(0.0181086 -0.0456546 0)
(0.0320084 -0.0465677 0)
(0.044569 -0.044767 0)
(0.0566337 -0.0399541 0)
(0.0665327 -0.0334252 0)
(0.0741221 -0.0267236 0)
(0.0803 -0.0203458 0)
(0.0853261 -0.0150552 0)
(0.0888577 -0.0112769 0)
(0.0916988 -0.00873012 0)
(0.0943656 -0.00663241 0)
(0.0969528 -0.00483537 0)
(0.0989334 -0.00332518 0)
(0.100376 -0.00223277 0)
(0.101581 -0.0012471 0)
(0.10307 -0.000307434 0)
(0.104774 0.00070063 0)
(0.106574 0.00153496 0)
(0.107956 0.00209977 0)
(0.108946 0.00226661 0)
(0.109294 0.00216309 0)
(0.109311 0.00176722 0)
(0.109119 0.00148276 0)
(0.108686 0.000945501 0)
(0.01004 -0.0245545 0)
(-0.0125615 0.00759952 0)
(-0.0232094 0.0333443 0)
(-0.0197531 0.0622535 0)
(-0.0220212 0.076219 0)
(-0.0182821 0.0708211 0)
(-0.0213838 0.0568123 0)
(-0.0239994 0.0385955 0)
(-0.0232405 0.0155035 0)
(-0.0205313 -0.00591981 0)
(-0.0150466 -0.024691 0)
(-0.00827387 -0.036614 0)
(0.00085953 -0.0433022 0)
(0.0099966 -0.0467746 0)
(0.0214264 -0.0498862 0)
(0.0333878 -0.0531157 0)
(0.0459643 -0.0548208 0)
(0.0573767 -0.054584 0)
(0.0654008 -0.0521833 0)
(0.0722119 -0.0465629 0)
(0.0788966 -0.0381413 0)
(0.083431 -0.029948 0)
(0.0862495 -0.0230227 0)
(0.0891577 -0.0170772 0)
(0.0916159 -0.0125698 0)
(0.0932653 -0.00990534 0)
(0.0946647 -0.00810842 0)
(0.0966877 -0.0062762 0)
(0.0989084 -0.00419412 0)
(0.100603 -0.00249288 0)
(0.101353 -0.00135123 0)
(0.101688 -0.000692471 0)
(0.102129 -0.000120255 0)
(0.103114 0.000447555 0)
(0.104427 0.00102327 0)
(0.10593 0.00141636 0)
(0.107214 0.00168161 0)
(0.108213 0.00156574 0)
(0.108827 0.00156094 0)
(0.109204 0.00106861 0)
(-0.00961401 -0.00791477 0)
(-0.0202265 0.0409885 0)
(-0.00539389 0.0240763 0)
(0.000318168 0.0509875 0)
(0.000774329 0.0617479 0)
(0.00863577 0.0576796 0)
(0.0110609 0.0492268 0)
(0.0165026 0.0340137 0)
(0.0211081 0.0123781 0)
(0.0263803 -0.00973098 0)
(0.0314645 -0.0287391 0)
(0.0355827 -0.0408492 0)
(0.0403919 -0.0480554 0)
(0.0465837 -0.0527262 0)
(0.0545291 -0.0569439 0)
(0.0647141 -0.0605706 0)
(0.0738953 -0.0626467 0)
(0.0820038 -0.0607571 0)
(0.0872069 -0.0555612 0)
(0.0877487 -0.0494832 0)
(0.0884196 -0.0411734 0)
(0.090353 -0.0316708 0)
(0.0909462 -0.0241742 0)
(0.0914017 -0.0186665 0)
(0.0928277 -0.0140218 0)
(0.094425 -0.0107495 0)
(0.0952527 -0.00896645 0)
(0.0960761 -0.00778327 0)
(0.0975519 -0.00603749 0)
(0.0994869 -0.00389618 0)
(0.100845 -0.00195244 0)
(0.101214 -0.000807608 0)
(0.100881 -0.000273067 0)
(0.100609 -6.86967e-05 0)
(0.100814 0.000104934 0)
(0.10173 0.000271407 0)
(0.102952 0.000496703 0)
(0.104671 0.00056285 0)
(0.105734 0.000714037 0)
(0.107567 0.00061997 0)
(-0.0635263 -0.0077975 0)
(-0.00371129 0.00267977 0)
(-0.0174413 0.0119813 0)
(0.0258491 0.0527296 0)
(0.0379859 0.0699971 0)
(0.0529991 0.0649501 0)
(0.0564914 0.052639 0)
(0.0636868 0.0334142 0)
(0.0690701 0.0102152 0)
(0.0737655 -0.0121307 0)
(0.0755169 -0.0297843 0)
(0.0747443 -0.04187 0)
(0.075214 -0.0503067 0)
(0.0786369 -0.0567934 0)
(0.0842511 -0.0623506 0)
(0.0910169 -0.0660301 0)
(0.0968257 -0.0668079 0)
(0.0987652 -0.0644754 0)
(0.100317 -0.0570006 0)
(0.099475 -0.0479495 0)
(0.0954933 -0.0400931 0)
(0.0936978 -0.0315197 0)
(0.093697 -0.0234947 0)
(0.0936026 -0.0181949 0)
(0.0939409 -0.0145899 0)
(0.0952894 -0.0115545 0)
(0.0965019 -0.00922353 0)
(0.0970654 -0.0078847 0)
(0.097433 -0.00664091 0)
(0.0984329 -0.00488583 0)
(0.0998625 -0.0026406 0)
(0.101029 -0.000765806 0)
(0.101404 0.000298426 0)
(0.101175 0.000492256 0)
(0.100683 0.000209884 0)
(0.100769 -0.000129818 0)
(0.100837 -0.000417104 0)
(0.102349 -0.000415612 0)
(0.102742 -0.000474557 0)
(0.105313 -0.000242894 0)
(0.105789 0.0384104 0)
(0.0746913 0.0167523 0)
(0.0423461 0.00494504 0)
(0.034824 0.0142592 0)
(0.0524026 0.0404263 0)
(0.0760312 0.0462881 0)
(0.0888491 0.0418476 0)
(0.100322 0.0270426 0)
(0.107146 0.0070529 0)
(0.110468 -0.0128233 0)
(0.109616 -0.028928 0)
(0.106747 -0.0410876 0)
(0.105617 -0.0517185 0)
(0.108391 -0.0598094 0)
(0.112807 -0.0655142 0)
(0.11491 -0.0691311 0)
(0.115144 -0.0682742 0)
(0.111727 -0.0634199 0)
(0.105771 -0.0556754 0)
(0.101894 -0.0456446 0)
(0.0979298 -0.0369865 0)
(0.0944477 -0.0303854 0)
(0.093735 -0.0240924 0)
(0.0949392 -0.0187517 0)
(0.0963957 -0.0150332 0)
(0.0979169 -0.0123901 0)
(0.0991598 -0.0101049 0)
(0.0998382 -0.0083616 0)
(0.0998323 -0.00693901 0)
(0.0998329 -0.00556357 0)
(0.100284 -0.00376181 0)
(0.101289 -0.00188289 0)
(0.102385 -0.000370225 0)
(0.103417 0.000471314 0)
(0.103807 0.000421202 0)
(0.104332 0.00017174 0)
(0.103884 -0.000638984 0)
(0.104555 -0.000848768 0)
(0.103961 -0.00146174 0)
(0.105186 -0.0013234 0)
(0.140025 0.0413276 0)
(0.131811 0.0381988 0)
(0.120948 0.0395718 0)
(0.104438 0.0392628 0)
(0.0938451 0.0392839 0)
(0.103145 0.03608 0)
(0.112983 0.0306601 0)
(0.123365 0.0183522 0)
(0.130525 0.00243269 0)
(0.134335 -0.0141977 0)
(0.135512 -0.0284426 0)
(0.135482 -0.0407097 0)
(0.135918 -0.0521827 0)
(0.136381 -0.0616876 0)
(0.136185 -0.0667545 0)
(0.133573 -0.0671672 0)
(0.126808 -0.0644338 0)
(0.118807 -0.0582358 0)
(0.110695 -0.0498745 0)
(0.104042 -0.0413221 0)
(0.100116 -0.0334823 0)
(0.0977946 -0.0275209 0)
(0.0965976 -0.0233638 0)
(0.0969255 -0.0201152 0)
(0.0985064 -0.0169381 0)
(0.100754 -0.0136948 0)
(0.102519 -0.0106412 0)
(0.103274 -0.00836473 0)
(0.103167 -0.00663689 0)
(0.102976 -0.00520859 0)