/*--------------------------------*- C++ -*----------------------------------*\
| =========                 |                                                 |
| \\      /  F ield         | OpenFOAM: The Open Source CFD Toolbox           |
|  \\    /   O peration     | Version:  2112                                  |
|   \\  /    A nd           | Website:  www.openfoam.com                      |
|    \\/     M anipulation  |                                                 |
\*---------------------------------------------------------------------------*/
FoamFile
{
    version     2.0;
    format      ascii;
    arch        "LSB;label=32;scalar=64";
    class       volScalarField;
    location    "0.26";
    object      nut;
}
// * * * * * * * * * * * * * * * * * * * * * * * * * * * * * * * * * * * * * //

dimensions      [0 2 -1 0 0 0 0];

internalField   nonuniform List<scalar> 
1880
(
3.50055e-11
4.74638e-12
3.7005e-13
4.93309e-14
1.36754e-14
1.99398e-13
1.06884e-14
3.25954e-14
4.84628e-14
1.63311e-13
7.74664e-14
8.12251e-14
2.15097e-14
1.18219e-13
7.04333e-14
2.07146e-13
6.3584e-13
3.5055e-13
2.35047e-13
1.70875e-12
3.63788e-13
2.11936e-12
3.13314e-12
2.7156e-13
1.0701e-12
6.8449e-11
2.54348e-13
3.15668e-10
1.15436e-09
2.18147e-11
4.84172e-09
5.71045e-09
1.59279e-09
8.71089e-11
1.69881e-10
4.43286e-11
2.79934e-11
1.79795e-11
4.53659e-11
1.60129e-11
2.2417e-11
3.91097e-12
9.13799e-12
9.28161e-13
2.93081e-14
1.35328e-11
3.77775e-12
4.02225e-11
6.02726e-12
6.027e-12
2.54993e-12
5.09407e-12
8.26794e-11
4.11545e-10
1.25201e-09
1.21131e-09
5.98798e-09
4.48121e-09
3.52587e-09
3.02607e-08
1.74959e-09
2.01612e-09
9.68924e-10
1.77743e-10
2.05623e-09
9.83875e-10
2.25221e-09
2.13844e-09
9.71798e-10
5.19509e-09
3.32841e-10
1.31176e-09
1.46535e-09
1.6475e-10
5.24277e-10
1.322e-09
5.49235e-11
3.03368e-09
5.5191e-11
2.84873e-10
2.19252e-09
4.9696e-12
6.9757e-09
3.94832e-09
1.91368e-09
2.57746e-08
7.37873e-09
2.40603e-08
5.0657e-08
1.4909e-08
7.04066e-13
3.66332e-11
3.5109e-10
1.40048e-09
2.81226e-09
3.54945e-09
2.49655e-10
7.3743e-09
1.51557e-09
2.17895e-08
4.19287e-11
5.45453e-09
1.3281e-08
1.45474e-09
1.05951e-08
9.12859e-09
1.31465e-09
2.52953e-09
9.24296e-10
3.67214e-09
9.33052e-09
8.73706e-09
1.42537e-08
1.19272e-08
1.68733e-08
1.87707e-08
1.76795e-08
2.6791e-08
3.13807e-08
3.87842e-08
2.93609e-11
3.02554e-10
4.15796e-10
4.67121e-10
9.2226e-10
5.19168e-11
1.16438e-09
9.09405e-11
1.16463e-09
9.34137e-09
5.84424e-09
5.6468e-09
6.58873e-09
1.69164e-08
8.65922e-09
8.9618e-09
6.12458e-09
1.54052e-09
7.80726e-09
3.57936e-09
1.78745e-10
5.71816e-09
4.39759e-09
1.07747e-08
9.78511e-09
1.7508e-08
1.44812e-08
2.04985e-08
2.57981e-08
2.8883e-08
1.33268e-13
1.2431e-12
7.85018e-11
1.34177e-11
1.81618e-09
2.95528e-11
3.6241e-10
1.06851e-09
9.8324e-10
7.48476e-09
3.16179e-09
6.67706e-09
1.9823e-09
2.29673e-09
3.38776e-09
5.44121e-09
7.40917e-10
5.77919e-10
1.71484e-09
2.55816e-09
2.19712e-09
5.65605e-09
5.12612e-09
9.68032e-09
1.0207e-08
1.40793e-08
1.518e-08
1.87275e-08
2.5064e-08
2.41653e-08
1.35072e-12
1.38097e-11
2.06314e-10
4.57165e-10
1.19526e-09
1.62816e-10
1.90594e-09
8.19562e-10
1.58501e-09
6.60018e-11
6.62735e-09
6.91999e-09
5.47505e-09
1.95364e-09
6.70511e-09
4.2408e-09
2.21629e-09
2.49534e-09
1.61458e-09
3.56709e-09
4.04391e-09
4.66684e-09
6.81482e-09
7.9582e-09
9.36017e-09
1.2964e-08
1.41053e-08
1.59039e-08
2.0936e-08
2.19986e-08
1.08573e-12
1.21334e-11
2.45897e-10
3.70827e-10
1.65782e-09
3.50072e-10
1.44727e-09
1.67256e-09
1.51139e-09
2.63074e-10
4.33825e-09
6.80868e-09
2.6955e-09
1.54373e-09
3.33674e-09
3.64863e-09
2.48816e-09
2.43838e-09
3.30958e-09
4.46371e-09
4.85438e-09
6.68924e-09
8.21686e-09
8.93813e-09
1.05013e-08
1.20286e-08
1.42057e-08
1.54905e-08
2.04485e-08
1.93874e-08
2.89797e-12
3.70799e-11
3.9469e-10
6.60783e-10
1.72824e-09
7.25524e-10
1.98908e-09
1.94984e-09
1.84467e-09
8.18365e-10
4.5673e-09
6.00847e-09
2.89419e-09
1.80976e-09
2.85756e-09
3.37042e-09
2.77627e-09
3.89339e-09
3.41888e-09
4.18297e-09
5.53564e-09
6.05358e-09
8.31142e-09
8.99354e-09
9.80927e-09
1.15167e-08
1.31583e-08
1.3896e-08
1.77556e-08
1.81265e-08
8.44976e-12
1.27904e-10
5.70765e-10
9.64158e-10
1.92982e-09
1.08998e-09
2.03843e-09
2.20059e-09
2.07228e-09
1.48131e-09
3.69835e-09
5.1214e-09
2.58692e-09
2.27755e-09
2.93785e-09
3.65057e-09
3.45221e-09
3.73652e-09
4.20808e-09
5.17683e-09
6.08384e-09
6.80118e-09
8.40442e-09
8.4383e-09
9.80186e-09
1.09889e-08
1.27574e-08
1.35323e-08
1.69276e-08
1.66605e-08
3.70224e-11
3.36964e-10
7.45069e-10
1.17842e-09
2.128e-09
1.35663e-09
2.01618e-09
2.47252e-09
2.37699e-09
1.87174e-09
3.07917e-09
4.72518e-09
2.53313e-09
2.88835e-09
2.78367e-09
3.90482e-09
4.13742e-09
4.19063e-09
4.41609e-09
5.21477e-09
6.12706e-09
6.86881e-09
7.88039e-09
8.54157e-09
9.34399e-09
1.05542e-08
1.2097e-08
1.28375e-08
1.53475e-08
1.58504e-08
8.76358e-11
5.43511e-10
8.64218e-10
1.43971e-09
2.14577e-09
1.63357e-09
2.24738e-09
2.44621e-09
2.56249e-09
2.47301e-09
3.25611e-09
4.08272e-09
2.86447e-09
3.46806e-09
3.30634e-09
4.14138e-09
4.31092e-09
4.37283e-09
4.94082e-09
5.51174e-09
6.27344e-09
6.75982e-09
7.81583e-09
8.34741e-09
9.3566e-09
1.03055e-08
1.17265e-08
1.23781e-08
1.45107e-08
1.49664e-08
4.04297e-11
5.42635e-10
8.16681e-10
1.31978e-09
2.32513e-09
1.69996e-09
1.97979e-09
2.61686e-09
2.82503e-09
2.52652e-09
2.78503e-09
4.20872e-09
3.09041e-09
3.57756e-09
3.39321e-09
4.44008e-09
4.80509e-09
4.48211e-09
4.96585e-09
5.76087e-09
6.13402e-09
6.92596e-09
7.49319e-09
8.39155e-09
9.22167e-09
1.00119e-08
1.12142e-08
1.19696e-08
1.34194e-08
1.43029e-08
2.16086e-11
4.34325e-10
8.64619e-10
1.57808e-09
2.07771e-09
1.88473e-09
2.24924e-09
2.51501e-09
2.80865e-09
3.07113e-09
3.07355e-09
3.92351e-09
3.25874e-09
4.12966e-09
3.75566e-09
4.59803e-09
4.88704e-09
4.89098e-09
5.37646e-09
5.82045e-09
6.35398e-09
6.9345e-09
7.63711e-09
8.38897e-09
9.10074e-09
9.77281e-09
1.08576e-08
1.15044e-08
1.27487e-08
1.36212e-08
1.31343e-12
2.43654e-10
4.44458e-10
8.3442e-10
2.47421e-09
1.66541e-09
1.51995e-09
2.57786e-09
2.88403e-09
2.6061e-09
2.65136e-09
4.10263e-09
3.32992e-09
3.79923e-09
3.68778e-09
4.79112e-09
5.16902e-09
4.8483e-09
5.22067e-09
5.99414e-09
6.25523e-09
6.88433e-09
7.38143e-09
8.11534e-09
8.83628e-09
9.38234e-09
1.02647e-08
1.10455e-08
1.19487e-08
1.29474e-08
8.66565e-11
6.19974e-10
1.15223e-09
1.50092e-09
1.89852e-09
1.81795e-09
2.04194e-09
2.22173e-09
2.454e-09
3.41945e-09
2.95093e-09
3.72218e-09
3.19973e-09
4.18583e-09
3.86881e-09
4.80775e-09
5.06493e-09
5.19354e-09
5.62978e-09
6.20085e-09
6.52208e-09
7.06139e-09
7.43642e-09
8.03377e-09
8.48689e-09
8.95583e-09
9.76679e-09
1.04433e-08
1.136e-08
1.2297e-08
1.1322e-12
2.33047e-11
1.19454e-10
4.29584e-10
2.15853e-09
1.04169e-09
7.34821e-10
1.65023e-09
2.0001e-09
1.79372e-09
2.27579e-09
3.83203e-09
3.0789e-09
3.27371e-09
3.66442e-09
4.88415e-09
5.00153e-09
5.16472e-09
5.60514e-09
6.44022e-09
6.57771e-09
6.75087e-09
6.87706e-09
7.15676e-09
7.62113e-09
7.98788e-09
8.74268e-09
9.59034e-09
1.05542e-08
1.15438e-08
2.13264e-09
2.40071e-09
1.47474e-09
1.51606e-09
2.16171e-09
2.32092e-09
3.47664e-09
3.41815e-09
2.97067e-09
3.34876e-09
1.26792e-09
1.91205e-09
7.91526e-10
7.97409e-10
1.13454e-11
1.52396e-11
5.67296e-12
6.27407e-11
4.83046e-12
2.42933e-12
1.32294e-10
4.73757e-10
7.52855e-10
4.12065e-10
6.41532e-11
5.76233e-12
1.48243e-10
1.06712e-09
2.39168e-09
4.40937e-09
4.98947e-09
5.69683e-09
1.04443e-09
1.21331e-10
4.20825e-11
4.92441e-12
1.55366e-12
4.62472e-13
1.67258e-12
8.61361e-13
1.69202e-12
1.13284e-12
2.17036e-13
2.89139e-12
1.20084e-11
8.76099e-12
1.48402e-12
4.948e-13
3.88152e-12
1.48872e-11
3.69694e-11
6.79399e-11
7.49386e-11
6.15285e-11
3.47504e-11
1.41037e-11
5.6612e-12
1.2337e-12
1.77203e-13
3.80152e-15
3.45871e-11
4.91508e-12
2.52387e-13
1.67516e-14
4.35306e-14
4.32056e-14
9.71684e-15
1.15248e-16
8.36003e-16
3.72771e-15
1.23075e-17
2.14507e-18
5.31915e-15
5.2472e-14
1.94069e-14
6.96812e-19
2.32403e-15
3.80575e-15
9.83303e-14
4.06284e-13
7.52263e-13
7.39085e-13
4.52288e-13
1.88953e-13
4.80043e-14
1.22668e-14
2.35744e-15
1.10272e-15
5.79614e-17
3.49826e-16
7.95977e-09
3.53359e-09
6.55089e-10
2.575e-11
1.18427e-10
1.68114e-12
2.66554e-10
1.16108e-10
1.41122e-09
4.30108e-09
2.06758e-08
1.68208e-08
3.36075e-09
5.64932e-08
2.19796e-08
3.68275e-09
5.47352e-09
1.11581e-08
1.01252e-07
8.49821e-08
3.24197e-08
6.40215e-08
3.07667e-08
1.40627e-08
4.65814e-08
5.50436e-08
6.11492e-08
1.53282e-08
3.77351e-07
1.18172e-07
4.4922e-08
3.42073e-08
5.33204e-08
3.55464e-08
3.08556e-08
4.10762e-08
5.08434e-08
5.29217e-08
1.34333e-08
3.80747e-08
3.97068e-08
3.84715e-08
3.62252e-08
3.03527e-08
2.99889e-08
4.25589e-08
4.53295e-08
4.2871e-08
3.4059e-08
4.19771e-08
4.08584e-08
2.88123e-08
3.5628e-08
3.35424e-08
3.18263e-08
3.61655e-08
3.71797e-08
4.3701e-08
3.90069e-08
2.35336e-08
3.17787e-08
2.76008e-08
2.95068e-08
2.76292e-08
2.85294e-08
3.37303e-08
3.65023e-08
3.39988e-08
3.42252e-08
2.72819e-08
3.1676e-08
2.39593e-08
2.74287e-08
2.80515e-08
2.69434e-08
3.00348e-08
3.31783e-08
3.25844e-08
3.00724e-08
2.40208e-08
2.58128e-08
2.22596e-08
2.44363e-08
2.48911e-08
2.54512e-08
2.80055e-08
2.88123e-08
2.80693e-08
2.89255e-08
2.39405e-08
2.37309e-08
2.02191e-08
2.27686e-08
2.36818e-08
2.32071e-08
2.56159e-08
2.74049e-08
2.61965e-08
2.36125e-08
2.22351e-08
2.03328e-08
1.88871e-08
2.07412e-08
2.18055e-08
2.2279e-08
2.35329e-08
2.36143e-08
2.35338e-08
2.31597e-08
2.04581e-08
1.83622e-08
1.75529e-08
1.94993e-08
2.04422e-08
2.0399e-08
2.1902e-08
2.2248e-08
2.12388e-08
1.99599e-08
1.87691e-08
1.64821e-08
1.65002e-08
1.80206e-08
1.90764e-08
1.94334e-08
2.01162e-08
1.98762e-08
1.94534e-08
1.88222e-08
1.71871e-08
1.5293e-08
1.55155e-08
1.69346e-08
1.78871e-08
1.80786e-08
1.87041e-08
1.85345e-08
1.77706e-08
1.70084e-08
1.57672e-08
1.41685e-08
1.46664e-08
1.58739e-08
1.67938e-08
1.71073e-08
1.74104e-08
1.70837e-08
1.64764e-08
1.58386e-08
1.45535e-08
1.34544e-08
1.39066e-08
1.501e-08
1.577e-08
1.60959e-08
1.63109e-08
1.60552e-08
1.54092e-08
1.47119e-08
1.35525e-08
1.26192e-08
1.31497e-08
1.42186e-08
1.48326e-08
1.52627e-08
1.53033e-08
1.51481e-08
1.44343e-08
1.38723e-08
1.24665e-08
6.09926e-09
5.57323e-09
7.2429e-09
6.6137e-09
7.75748e-09
6.4462e-09
6.956e-09
5.13224e-09
4.86878e-09
3.10555e-09
4.82863e-14
5.60143e-13
8.54578e-13
3.86518e-12
7.36705e-12
1.38866e-11
1.93576e-11
2.53427e-11
2.48258e-11
2.26451e-11
7.43541e-15
4.70174e-15
7.33896e-15
1.0772e-14
1.5957e-14
3.28777e-14
3.93709e-14
6.60695e-14
5.77522e-14
3.84373e-14
3.47988e-08
2.42746e-08
4.37336e-08
3.40708e-08
1.28558e-08
3.86953e-09
7.8397e-10
4.8098e-10
3.42989e-10
5.86541e-10
1.40209e-09
3.62734e-09
1.34532e-08
5.70991e-08
1.44885e-07
5.04372e-08
6.2715e-09
8.67497e-10
1.58631e-10
3.41587e-11
6.89884e-12
1.00206e-12
6.87224e-14
7.85572e-18
1.5736e-14
5.67675e-14
8.3208e-14
7.97145e-14
5.63512e-14
3.24095e-14
1.57039e-14
6.96637e-15
2.8028e-15
1.16203e-15
4.87446e-16
2.16285e-16
1.11585e-16
4.44514e-17
3.61968e-17
4.49548e-17
3.92271e-08
2.89137e-07
3.24823e-08
1.30094e-07
1.61205e-07
7.21388e-08
1.03984e-09
1.00664e-06
1.80232e-07
1.03788e-10
2.53281e-08
6.45511e-08
1.1996e-07
1.32404e-07
1.28407e-07
1.12603e-07
9.03883e-08
6.53519e-08
4.04565e-08
2.0675e-08
8.87702e-09
3.1998e-09
9.63551e-10
2.3869e-10
4.65877e-11
6.06267e-12
3.25979e-13
1.21819e-14
1.37465e-13
2.86858e-13
3.6091e-13
2.98452e-13
2.2715e-13
1.3813e-13
9.13231e-14
4.88604e-14
3.24031e-14
1.56055e-14
1.0606e-14
3.92326e-15
5.59809e-08
1.76597e-09
4.83601e-08
8.05042e-08
1.44913e-08
1.95073e-07
1.007e-06
1.46933e-06
5.78941e-07
4.98301e-08
1.16655e-10
4.29012e-09
3.18661e-08
7.44867e-08
1.00074e-07
1.05161e-07
9.63178e-08
8.33513e-08
6.69273e-08
4.83676e-08
2.91192e-08
1.47614e-08
7.82447e-09
5.03013e-09
3.64502e-09
2.35882e-09
1.17216e-09
4.01402e-10
9.19318e-11
1.36627e-11
1.01362e-12
6.91767e-14
1.11157e-13
2.58603e-13
4.0668e-13
3.62075e-13
3.8561e-13
2.39197e-13
2.24467e-13
9.37252e-14
1.82185e-08
1.22162e-07
1.50319e-07
1.72639e-08
1.15096e-07
4.69864e-07
1.35581e-06
1.65636e-06
7.95877e-07
9.64344e-08
1.12942e-08
9.59252e-11
4.52815e-09
3.17751e-08
6.49722e-08
8.39584e-08
7.87782e-08
7.08618e-08
5.67454e-08
3.40805e-08
2.54187e-08
2.43339e-08
1.29768e-08
4.22746e-09
2.35854e-09
2.83459e-09
4.00362e-09
4.56661e-09
4.16978e-09
3.1203e-09
1.89038e-09
8.43095e-10
2.39877e-10
3.48966e-11
6.51336e-13
2.55418e-13
4.16839e-12
5.16365e-12
9.1574e-12
4.48639e-12
2.47305e-08
1.64587e-07
1.475e-07
9.5972e-09
2.28326e-07
1.3599e-06
2.11214e-06
2.17415e-06
1.43817e-06
2.18724e-07
5.9702e-09
8.43635e-10
3.45305e-10
1.92298e-08
5.59287e-08
8.57815e-08
7.94557e-08
5.62626e-08
4.20948e-08
6.62431e-09
3.99446e-10
4.59539e-10
1.01107e-11
9.14092e-10
6.16008e-09
1.57978e-09
1.4507e-09
2.65211e-09
3.68952e-09
3.78831e-09
3.23945e-09
2.49197e-09
1.80752e-09
1.23896e-09
7.94576e-10
4.64826e-10
2.15861e-10
9.38171e-11
1.9849e-11
1.86645e-11
1.43356e-06
8.91278e-08
1.01902e-07
1.65473e-09
2.54253e-07
1.06471e-06
2.03055e-06
2.45712e-06
2.1346e-06
9.74971e-07
2.30629e-08
2.43293e-10
1.74498e-09
1.77961e-08
4.86803e-08
7.08844e-08
4.03865e-08
2.35906e-08
3.98984e-08
2.88613e-08
2.20673e-09
1.49619e-08
5.94229e-10
1.18262e-12
8.73159e-11
8.88553e-10
3.53325e-09
3.63183e-09
2.9492e-09
3.02669e-09
2.84907e-09
2.35681e-09
1.79681e-09
1.29958e-09
9.54211e-10
7.16508e-10
5.80295e-10
5.20089e-10
4.74407e-10
4.93985e-10
1.37384e-08
2.68159e-07
2.29696e-07
2.11929e-07
5.33288e-11
1.61071e-06
2.58625e-06
2.63766e-06
2.40204e-06
1.79905e-06
3.86522e-07
2.60025e-11
1.85781e-08
4.75338e-08
6.26817e-08
5.7939e-08
6.09382e-08
1.71603e-09
1.66304e-10
2.58191e-08
1.51168e-08
9.98539e-09
6.27596e-09
2.17697e-09
1.47505e-09
1.23089e-09
1.2063e-09
1.31966e-09
2.00898e-09
2.67577e-09
2.38031e-09
1.90139e-09
1.48243e-09
1.07942e-09
7.80793e-10
5.37989e-10
4.57129e-10
4.06087e-10
4.25822e-10
4.4984e-10
1.89835e-08
3.09834e-08
1.61076e-09
9.55866e-08
7.47678e-08
3.95895e-09
1.52366e-06
2.22746e-06
2.34445e-06
1.90367e-06
5.26976e-07
2.13493e-09
3.31393e-08
8.39617e-08
7.92009e-08
7.7382e-08
6.85629e-08
5.60775e-08
1.19312e-08
1.4199e-08
2.16907e-08
4.78411e-10
1.55583e-10
4.35797e-09
1.96581e-08
1.87383e-08
8.42665e-09
3.02048e-09
1.00066e-09
2.7262e-10
1.94043e-10
5.15924e-10
1.06623e-09
9.87441e-10
7.89845e-10
6.23012e-10
5.20326e-10
5.17385e-10
5.10886e-10
5.12484e-10
1.03993e-06
2.30398e-09
8.75558e-09
9.78242e-10
7.20002e-09
2.49808e-07
1.36569e-06
2.01133e-06
2.15679e-06
1.79846e-06
4.24006e-07
1.47779e-08
1.05771e-07
8.15065e-08
2.62984e-08
8.506e-09
3.34576e-08
4.98846e-08
4.38702e-08
3.85599e-08
3.41106e-08
2.02961e-08
3.46254e-09
5.89893e-10
7.91956e-10
2.55958e-09
7.82492e-09
1.40124e-08
1.11656e-08
4.26474e-09
8.12461e-10
1.12491e-11
1.40035e-10
1.88858e-09
3.99648e-10
3.73009e-10
6.05352e-10
4.27547e-10
4.52278e-10
4.08338e-10
8.3533e-08
7.36872e-08
1.08031e-07
8.23124e-09
4.57071e-09
1.98398e-07
1.16545e-06
1.47086e-06
1.53992e-06
5.2701e-07
4.87248e-08
7.01452e-08
6.86682e-08
9.1386e-08
6.64492e-08
5.20421e-08
4.39125e-08
3.96118e-08
3.91372e-08
2.3114e-08
8.54067e-09
1.45983e-08
1.2758e-08
2.4194e-09
6.19995e-09
7.5396e-09
3.96142e-09
4.09247e-09
5.82143e-09
7.78688e-09
7.54291e-09
4.87066e-09
2.11592e-09
5.96352e-10
3.50829e-10
3.42656e-10
5.90317e-10
5.7134e-10
6.31646e-10
5.08673e-10
1.17928e-08
3.35879e-08
2.54776e-09
3.44372e-08
1.81645e-08
1.57985e-08
1.89079e-08
9.54657e-10
5.78306e-09
9.19857e-08
1.22801e-07
1.06703e-07
4.87231e-08
4.70019e-08
2.96109e-08
4.40733e-08
4.54999e-08
3.61532e-08
3.19934e-08
2.49737e-08
2.15284e-08
1.27227e-08
1.80745e-08
1.68362e-07
7.17165e-08
2.14459e-08
1.48026e-08
3.40557e-08
1.65018e-08
6.25253e-09
4.82903e-09
3.6346e-09
2.76796e-09
2.14396e-09
1.52016e-09
1.11864e-09
8.30746e-10
7.01178e-10
6.12022e-10
4.17008e-10
7.14078e-09
4.70028e-08
3.39071e-08
5.23228e-08
6.41264e-08
6.30443e-08
6.36318e-08
7.34821e-08
9.03915e-08
9.16857e-08
7.33674e-08
7.27162e-08
5.3033e-08
4.43662e-08
4.17744e-08
2.65368e-08
1.81577e-08
3.19391e-08
2.3365e-08
6.00125e-09
2.56106e-07
8.55671e-08
2.23423e-08
6.9284e-09
3.72704e-09
1.2492e-08
2.42393e-09
5.86561e-09
1.11424e-08
1.87639e-08
2.28548e-08
1.41137e-08
1.58095e-09
3.11691e-11
3.27137e-10
5.69521e-10
7.83519e-10
6.80405e-10
7.31791e-10
4.81507e-10
2.57688e-08
4.6179e-08
4.22683e-08
3.62825e-08
4.68998e-08
5.19816e-08
5.33181e-08
6.8299e-08
7.66072e-08
7.03633e-08
5.29409e-08
3.72067e-08
5.76085e-08
5.61247e-08
4.4059e-08
4.1397e-08
2.60043e-08
1.84235e-08
2.65769e-08
2.99639e-08
2.40383e-08
5.62915e-09
2.16163e-08
4.97774e-09
2.74691e-10
2.65845e-10
3.30973e-10
1.76675e-09
5.92868e-09
1.0456e-08
1.00751e-08
6.22441e-09
3.38083e-09
2.00275e-09
1.60117e-09
1.23483e-09
1.14249e-09
8.71101e-10
8.15862e-10
4.86143e-10
4.37395e-08
4.31196e-08
3.75073e-08
3.50005e-08
4.00449e-08
4.17534e-08
4.43875e-08
5.09988e-08
5.81719e-08
6.27082e-08
6.08538e-08
3.59047e-08
3.0318e-08
4.74483e-08
3.81693e-08
2.5454e-08
1.67951e-08
2.73273e-08
3.37208e-09
1.07454e-08
1.99307e-08
1.07125e-09
5.85455e-10
9.6157e-09
2.76943e-09
8.57152e-08
1.65374e-07
1.88546e-09
6.2477e-09
9.99612e-09
8.50986e-09
5.69404e-09
3.47196e-09
1.97232e-09
1.37808e-09
1.06238e-09
1.21395e-09
9.2236e-10
9.07141e-10
4.45088e-10
3.06092e-08
3.52845e-08
3.38969e-08
3.11911e-08
3.21102e-08
3.70213e-08
3.78553e-08
3.97696e-08
4.24121e-08
4.2798e-08
4.45162e-08
4.66795e-08
2.86854e-08
3.33383e-08
2.90824e-08
2.41052e-08
1.13414e-08
3.23814e-08
2.5136e-08
1.66975e-08
7.52294e-09
8.93346e-09
1.57992e-08
1.87995e-08
2.1304e-08
1.41161e-09
1.75677e-07
1.68407e-07
6.93915e-08
9.31646e-09
2.90114e-10
5.63401e-10
1.68279e-09
2.04281e-09
1.94451e-09
1.56111e-09
1.3182e-09
1.03275e-09
8.99448e-10
4.98364e-10
2.91197e-08
3.17682e-08
3.03163e-08
2.81934e-08
2.8196e-08
2.99242e-08
3.09758e-08
3.27275e-08
3.86441e-08
3.39628e-08
2.98401e-08
4.10764e-08
3.5006e-08
2.06159e-08
2.69423e-08
3.37292e-08
2.43975e-08
1.42033e-08
1.75194e-08
1.25922e-08
1.87866e-08
2.68799e-10
8.60938e-10
1.31439e-08
2.00055e-10
9.63466e-11
9.54848e-10
3.92444e-09
7.55232e-09
9.30543e-09
8.53399e-09
6.60469e-09
4.69631e-09
3.2107e-09
2.2882e-09
1.64327e-09
1.40718e-09
1.09871e-09
9.3726e-10
4.18104e-10
2.46868e-08
2.54623e-08
2.59941e-08
2.48776e-08
2.37166e-08
2.60207e-08
2.87037e-08
2.66977e-08
2.96352e-08
3.12054e-08
3.06185e-08
2.10169e-08
2.87212e-08
3.07188e-08
1.95665e-08
1.9759e-08
2.02591e-08
2.03676e-08
1.25973e-08
5.53802e-09
1.81324e-08
7.71798e-09
1.12396e-09
4.95965e-09
6.21051e-08
9.70895e-08
3.14262e-08
1.61394e-09
2.17905e-09
3.97187e-09
4.57846e-09
4.42409e-09
3.71855e-09
2.83466e-09
2.2652e-09
1.78417e-09
1.33514e-09
1.11313e-09
9.58609e-10
4.92918e-10
2.18889e-08
2.30892e-08
2.22859e-08
2.15477e-08
2.24343e-08
2.18125e-08
2.26148e-08
2.52409e-08
2.4905e-08
2.45895e-08
2.67224e-08
2.50994e-08
1.90839e-08
2.45922e-08
2.23878e-08
1.85984e-08
1.55e-08
2.13091e-08
2.03368e-08
1.14908e-08
9.99625e-09
1.13915e-08
1.32489e-08
1.4173e-08
1.17483e-08
8.13927e-09
6.35954e-09
6.87729e-09
7.45095e-09
7.12248e-09
6.22259e-09
5.06991e-09
3.99908e-09
3.01354e-09
2.30584e-09
1.69253e-09
1.36117e-09
9.91774e-10
8.37943e-10
4.06384e-10
1.93368e-08
1.94272e-08
1.91531e-08
1.8804e-08
1.8255e-08
1.98247e-08
2.01293e-08
1.93929e-08
2.21696e-08
2.23697e-08
2.01081e-08
2.31848e-08
2.32366e-08
1.87618e-08
1.88622e-08
2.26404e-08
2.02603e-08
1.59296e-08
1.67052e-08
1.86001e-08
1.77426e-08
1.41297e-08
9.19553e-09
5.3931e-09
6.58754e-09
9.254e-09
1.05352e-08
1.01494e-08
8.76333e-09
7.02179e-09
5.40816e-09
4.13602e-09
3.1816e-09
2.56696e-09
2.03764e-09
1.71032e-09
1.32126e-09
1.04305e-09
7.85488e-10
5.04147e-10
1.72844e-08
1.73139e-08
1.67484e-08
1.63281e-08
1.6408e-08
1.6123e-08
1.66158e-08
1.76624e-08
1.70751e-08
1.80921e-08
1.94394e-08
1.75808e-08
1.78026e-08
2.01289e-08
1.86242e-08
1.58329e-08
1.68314e-08
1.86726e-08
1.74171e-08
1.35845e-08
1.11215e-08
1.18532e-08
1.25586e-08
1.18248e-08
1.05843e-08
9.10651e-09
7.6149e-09
6.41943e-09
5.67764e-09
5.022e-09
4.41849e-09
3.69981e-09
3.05247e-09
2.37645e-09
1.87931e-09
1.38969e-09
1.11695e-09
7.9164e-10
6.73217e-10
4.57654e-10
1.54526e-08
1.51156e-08
1.44953e-08
1.40606e-08
1.38314e-08
1.412e-08
1.40716e-08
1.41462e-08
1.51062e-08
1.52743e-08
1.53606e-08
1.65439e-08
1.65538e-08
1.57455e-08
1.65245e-08
1.73933e-08
1.64837e-08
1.51764e-08
1.54478e-08
1.58039e-08
1.46862e-08
1.27337e-08
1.066e-08
8.84669e-09
8.22922e-09
8.38218e-09
8.37609e-09
7.82957e-09
6.89342e-09
5.75677e-09
4.63238e-09
3.61944e-09
2.75646e-09
2.0876e-09
1.55554e-09
1.20141e-09
9.158e-10
7.62225e-10
6.46289e-10
5.54804e-10
1.39465e-08
1.34479e-08
1.27394e-08
1.21863e-08
1.18675e-08
1.17215e-08
1.1767e-08
1.20252e-08
1.22314e-08
1.29357e-08
1.35375e-08
1.3509e-08
1.40877e-08
1.50332e-08
1.49572e-08
1.45694e-08
1.49854e-08
1.52753e-08
1.4736e-08
1.33747e-08
1.20435e-08
1.12839e-08
1.09689e-08
1.03506e-08
9.33628e-09
8.17808e-09
7.01676e-09
5.80527e-09
4.81153e-09
3.92065e-09
3.24861e-09
2.5756e-09
2.07738e-09
1.57316e-09
1.25479e-09
9.24192e-10
7.82605e-10
6.17302e-10
6.05275e-10
5.24827e-10
1.27179e-08
1.2032e-08
1.12467e-08
1.05989e-08
1.02113e-08
1.0133e-08
1.00722e-08
1.02606e-08
1.07752e-08
1.12014e-08
1.16652e-08
1.22626e-08
1.24769e-08
1.24091e-08
1.26105e-08
1.26355e-08
1.21586e-08
1.13431e-08
1.06886e-08
1.02978e-08
9.73918e-09
8.86939e-09
7.9069e-09
6.87005e-09
6.02479e-09
5.4186e-09
5.04374e-09
4.52536e-09
3.94025e-09
3.2058e-09
2.5309e-09
1.851e-09
1.37107e-09
9.30519e-10
6.85001e-10
4.61749e-10
3.97632e-10
3.04238e-10
3.22243e-10
2.64363e-10
1.16236e-08
1.08599e-08
1.00803e-08
9.35081e-09
8.85882e-09
8.66207e-09
8.60413e-09
8.57498e-09
8.51793e-09
8.34036e-09
7.66797e-09
6.27154e-09
4.70385e-09
3.29618e-09
1.93606e-09
8.76713e-10
3.782e-10
1.84546e-10
9.49013e-11
5.38657e-11
3.68012e-11
2.59183e-11
2.90371e-11
4.91961e-11
8.42114e-11
1.05505e-10
1.05433e-10
6.84912e-11
3.78515e-11
1.42275e-11
5.88204e-12
1.67277e-12
1.67711e-12
1.35244e-12
2.02891e-12
1.51114e-12
2.46605e-12
1.78844e-12
3.25263e-12
3.06005e-12
2.58613e-09
2.15126e-09
1.92329e-09
1.75921e-09
1.69952e-09
1.75341e-09
1.70969e-09
1.53639e-09
1.31844e-09
9.62712e-10
5.33015e-10
2.27455e-10
6.06815e-11
2.7675e-12
5.12295e-12
5.18347e-11
1.17506e-10
1.71642e-10
1.98184e-10
1.74475e-10
1.13603e-10
5.49769e-11
1.90386e-11
4.67547e-12
8.3607e-13
1.8721e-13
7.20157e-14
5.27706e-14
5.11358e-14
1.35543e-13
2.4983e-13
4.3691e-13
5.78101e-13
6.22617e-13
6.32792e-13
5.10584e-13
4.70631e-13
2.92839e-13
2.70194e-13
1.11905e-13
2.0387e-11
1.80451e-11
2.04282e-11
2.35858e-11
2.72896e-11
3.33431e-11
3.71653e-11
3.53658e-11
2.97959e-11
2.12787e-11
1.13613e-11
3.53026e-12
2.84029e-13
1.43475e-13
2.15008e-12
7.8665e-12
1.61504e-11
2.23195e-11
2.20906e-11
1.60033e-11
8.99762e-12
4.20019e-12
1.56958e-12
4.21442e-13
6.1985e-14
9.19688e-16
3.58723e-15
2.3294e-14
4.65117e-14
4.92315e-14
5.18559e-14
3.78755e-14
3.33707e-14
2.09775e-14
1.87417e-14
1.15265e-14
1.03657e-14
6.18157e-15
5.08018e-15
2.69827e-15
2.8127e-14
1.93741e-14
3.26888e-14
5.72178e-14
9.62737e-14
1.39534e-13
1.59402e-13
1.6617e-13
1.54806e-13
9.67461e-14
2.94496e-14
2.37552e-15
7.42198e-15
9.02946e-14
3.11557e-13
5.37406e-13
5.88335e-13
4.47103e-13
2.3097e-13
7.75066e-14
1.50623e-14
9.3328e-16
3.35953e-16
2.56118e-15
5.53368e-15
5.87329e-15
3.90141e-15
2.43222e-15
1.7274e-15
1.48135e-15
1.16894e-15
1.07279e-15
7.7831e-16
6.46659e-16
4.06226e-16
2.74512e-16
1.6699e-16
7.56101e-17
7.03849e-17
4.42763e-17
)
;

boundaryField
{
    inlet
    {
        type            calculated;
        value           nonuniform List<scalar> 
20
(
1.50288e-34
6.40606e-33
8.08387e-33
1.02018e-33
2.1143e-33
1.44495e-33
1.85877e-33
1.97308e-33
2.08986e-33
2.04666e-33
1.53537e-33
5.73119e-34
1.36212e-33
1.46524e-33
7.83185e-34
1.31244e-33
4.21161e-34
6.59489e-33
5.51523e-33
1.45443e-34
)
;
    }
    outlet
    {
        type            calculated;
        value           nonuniform List<scalar> 
27
(
2.07417e-33
1.51363e-33
1.30046e-33
1.17917e-33
1.82054e-34
7.37237e-34
2.0424e-36
3.21454e-35
1.18916e-34
4.63745e-34
1.12878e-33
1.73283e-33
1.95511e-33
2.53007e-33
2.56258e-33
1.625e-33
4.52673e-35
3.41786e-37
3.69861e-39
1.11418e-38
1.5373e-38
9.53196e-39
1.54733e-37
3.92299e-35
2.10162e-33
2.47419e-33
2.15332e-33
)
;
    }
    lowerWall
    {
        type            fixedValue;
        value           uniform 0;
    }
    upperWall
    {
        type            fixedValue;
        value           uniform 0;
    }
    defaultFaces
    {
        type            empty;
    }
}


// ************************************************************************* //
