/*--------------------------------*- C++ -*----------------------------------*\
| =========                 |                                                 |
| \\      /  F ield         | OpenFOAM: The Open Source CFD Toolbox           |
|  \\    /   O peration     | Version:  2112                                  |
|   \\  /    A nd           | Website:  www.openfoam.com                      |
|    \\/     M anipulation  |                                                 |
\*---------------------------------------------------------------------------*/
FoamFile
{
    version     2.0;
    format      ascii;
    arch        "LSB;label=32;scalar=64";
    class       volScalarField;
    location    "0.26";
    object      p;
}
// * * * * * * * * * * * * * * * * * * * * * * * * * * * * * * * * * * * * * //

dimensions      [0 2 -2 0 0 0 0];

internalField   nonuniform List<scalar> 
1880
(
0.00320477
0.00306787
0.00297409
0.00292802
0.00289906
0.00287848
0.00285815
0.00283997
0.0028206
0.00280891
0.00279862
0.00278911
0.00278308
0.00278123
0.0027822
0.00278906
0.00279763
0.00281514
0.00283289
0.00285974
0.00289786
0.00295073
0.00302209
0.00311674
0.0032304
0.00336312
0.00353141
0.00370544
0.00389063
0.00411587
0.00302344
0.00299154
0.00294926
0.00291459
0.00288369
0.00286269
0.00284473
0.00282989
0.00281163
0.00280069
0.00279127
0.00277883
0.00277272
0.00276888
0.00277369
0.00277544
0.00278454
0.00279774
0.00281466
0.0028391
0.00287159
0.00292763
0.00298569
0.00308864
0.00316661
0.00332472
0.00342728
0.00361402
0.00377141
0.00391214
0.00298992
0.00296965
0.00293831
0.00290798
0.00287859
0.00285549
0.00283844
0.0028229
0.00280554
0.00279338
0.00278481
0.0027703
0.00276169
0.00275929
0.00276163
0.00276046
0.00276324
0.00277567
0.00279203
0.00281332
0.00284411
0.00288485
0.00293923
0.00300743
0.00308327
0.00317791
0.00326943
0.00337531
0.00345451
0.00352351
0.00293161
0.00292149
0.0029037
0.00288414
0.00286076
0.00283974
0.00282436
0.00280876
0.00279162
0.00277945
0.00277246
0.00275652
0.00274597
0.00274132
0.00274261
0.00273837
0.00273699
0.00274701
0.00275596
0.00277597
0.00279242
0.00282698
0.00286383
0.00291332
0.00296633
0.00302564
0.00308556
0.00312997
0.00317651
0.00317954
0.00290262
0.00289628
0.00288413
0.00286941
0.00284966
0.00282949
0.00281509
0.00279854
0.00278118
0.00276751
0.00276107
0.00274329
0.00273085
0.00272362
0.00272192
0.0027148
0.00270955
0.00271359
0.00271862
0.00273037
0.0027398
0.00276129
0.00278326
0.00281338
0.00284243
0.00287238
0.0028952
0.00290606
0.00290222
0.00286371
0.00287526
0.00287027
0.00286075
0.00284939
0.00283278
0.0028145
0.00280132
0.00278504
0.00276699
0.00275253
0.00274523
0.0027271
0.0027118
0.00270267
0.00269729
0.00268807
0.00267752
0.00267643
0.00267608
0.00267863
0.0026812
0.00268613
0.0026975
0.0027054
0.00271488
0.00271817
0.00271341
0.00269116
0.00265427
0.00258392
0.00285463
0.00285066
0.00284295
0.00283367
0.00281922
0.00280207
0.00278966
0.00277306
0.00275441
0.00273842
0.00273002
0.00271044
0.00269299
0.00268111
0.00267217
0.00265965
0.00264413
0.00263759
0.00263063
0.00262549
0.00261804
0.00261162
0.00260872
0.00260004
0.00259076
0.00257175
0.00254264
0.00249645
0.00243111
0.0023383
0.00283807
0.00283456
0.00282762
0.00281934
0.00280587
0.00278938
0.00277708
0.00276036
0.00274066
0.00272365
0.0027133
0.00269278
0.00267234
0.00265814
0.00264547
0.00262923
0.00260919
0.00259581
0.00258426
0.00256908
0.00255431
0.00253565
0.0025203
0.00249814
0.00247084
0.00243389
0.00238564
0.00231769
0.00223385
0.00212234
0.00282518
0.00282183
0.00281523
0.00280738
0.00279435
0.00277804
0.00276552
0.0027483
0.00272753
0.00270928
0.002697
0.00267497
0.00265167
0.00263499
0.00261854
0.00259869
0.00257338
0.00255454
0.00253692
0.00251384
0.00249077
0.0024618
0.00243522
0.0024005
0.00235836
0.00230663
0.00224145
0.00215821
0.00205874
0.00193408
0.00281574
0.00281237
0.00280575
0.00279787
0.00278468
0.00276812
0.00275493
0.00273702
0.00271485
0.00269534
0.00268095
0.00265723
0.00263109
0.0026115
0.00259188
0.00256754
0.00253813
0.00251305
0.0024903
0.00245975
0.00242855
0.00239141
0.00235354
0.00230889
0.00225421
0.00218913
0.00211219
0.00201608
0.00190503
0.00177155
0.00280972
0.00280615
0.00279923
0.00279091
0.0027771
0.00275982
0.00274559
0.00272667
0.00270292
0.00268201
0.00266546
0.00263994
0.00261082
0.00258848
0.00256551
0.00253724
0.00250337
0.00247303
0.00244487
0.00240785
0.00236919
0.00232443
0.00227717
0.00222369
0.00215849
0.00208337
0.00199652
0.00189091
0.00177138
0.0016319
0.00280719
0.00280329
0.00279581
0.00278672
0.00277188
0.00275349
0.0027379
0.00271774
0.00269228
0.00266986
0.00265121
0.00262361
0.00259174
0.00256638
0.00254052
0.00250813
0.00247033
0.00243495
0.00240156
0.00235913
0.00231324
0.00226214
0.00220666
0.00214535
0.00207239
0.00198863
0.00189442
0.00178221
0.00165614
0.00151285
0.00280842
0.00280393
0.00279549
0.00278504
0.00276856
0.0027485
0.00273112
0.00270943
0.00268218
0.00265831
0.00263758
0.00260792
0.00257327
0.00254514
0.00251642
0.00248036
0.00243871
0.00239887
0.00236061
0.00231333
0.00226121
0.00220436
0.00214216
0.00207439
0.00199512
0.00190491
0.00180492
0.00168807
0.00155756
0.00141174
0.00281425
0.00280912
0.00279956
0.00278751
0.00276905
0.00274708
0.00272774
0.00270432
0.00267508
0.00264955
0.00262664
0.00259449
0.00255713
0.00252615
0.00249475
0.00245509
0.00240974
0.00236583
0.00232294
0.0022714
0.00221378
0.00215189
0.0020844
0.00201107
0.00192718
0.00183212
0.00172776
0.00160804
0.00147452
0.00132735
0.00282449
0.00281783
0.0028059
0.00279079
0.00276919
0.00274455
0.00272286
0.00269754
0.00266669
0.00263975
0.00261481
0.0025803
0.00254063
0.00250753
0.0024739
0.00243114
0.0023825
0.00233514
0.00228813
0.00223273
0.00217043
0.00210419
0.00203247
0.00195482
0.00186733
0.00176892
0.00166145
0.00154004
0.00140507
0.00125717
0.00284381
0.00283558
0.00282066
0.00280149
0.00277591
0.00274817
0.00272382
0.00269655
0.0026642
0.00263579
0.00260835
0.00257126
0.00252946
0.00249401
0.00245754
0.0024112
0.00235926
0.0023087
0.00225785
0.00219884
0.00213249
0.00206245
0.00198746
0.00190638
0.00181633
0.0017159
0.00160649
0.00148443
0.00134905
0.0012012
0.0028646
0.00285211
0.00283145
0.00280655
0.0027769
0.00274666
0.00272046
0.00269183
0.0026584
0.00262839
0.00259837
0.00255888
0.00251556
0.0024782
0.00243936
0.00239051
0.00233647
0.00228372
0.00222929
0.00216661
0.00209679
0.00202372
0.00194646
0.00186331
0.00177194
0.0016709
0.0015609
0.00143908
0.00130429
0.00115685
0.00291803
0.0028951
0.0028606
0.00282407
0.00278777
0.00275423
0.00272576
0.00269543
0.00266058
0.00262823
0.00259489
0.00255345
0.00250962
0.00247065
0.00242886
0.00237734
0.00232169
0.00226677
0.0022087
0.00214222
0.00206889
0.00199298
0.00191362
0.00182892
0.00173692
0.00163613
0.00152629
0.0014053
0.00127184
0.0011258
0.00294695
0.00291181
0.00286685
0.00282512
0.00278716
0.00275385
0.0027245
0.00269266
0.00265659
0.00262282
0.00258748
0.00254495
0.00250028
0.00245855
0.002414
0.00236175
0.00230585
0.00224775
0.00218374
0.00211241
0.00203681
0.00195951
0.00188015
0.00179626
0.00170605
0.0016079
0.00149992
0.00138088
0.00124909
0.00110377
0.00312665
0.00298632
0.00288892
0.00283571
0.00279975
0.00276646
0.00273369
0.00269811
0.00266001
0.00262417
0.00258714
0.0025453
0.00250144
0.00245739
0.00240974
0.00235698
0.00230136
0.00224238
0.00217694
0.00210482
0.00202787
0.00194846
0.00186723
0.00178247
0.0016923
0.00159491
0.00148781
0.00137026
0.00124062
0.00109825
0.00420846
0.00389567
0.00348041
0.00291402
0.00235213
0.00156046
0.000802051
-0.000134612
-0.00132654
-0.00311422
0.00396632
0.00362983
0.00303913
0.0024096
0.00181842
0.00107017
0.000331954
-0.00061045
-0.00180973
-0.00326843
0.00353485
0.00315553
0.00264835
0.00220869
0.00163032
0.00100758
0.000160066
-0.00068173
-0.00179331
-0.00265175
0.00315085
0.00283423
0.00237953
0.00182863
0.00129847
0.000642059
-7.45582e-05
-0.000879009
-0.00182431
-0.00269273
0.00279718
0.00247968
0.0020404
0.00159447
0.00109818
0.000525975
-0.000165929
-0.000902884
-0.00173409
-0.00247178
0.00249432
0.00219265
0.00181779
0.00134702
0.000883227
0.000319671
-0.000305271
-0.000982593
-0.00169175
-0.00236962
0.00222541
0.00194371
0.00157449
0.00115484
0.000722037
0.000217682
-0.00036067
-0.000973029
-0.00158784
-0.0021815
0.00199409
0.00172469
0.00138995
0.000989272
0.000578304
0.000107631
-0.000420833
-0.000984524
-0.00152059
-0.00205025
0.00179257
0.00154219
0.00122163
0.000852357
0.00046734
3.65186e-05
-0.000445144
-0.000950104
-0.00142514
-0.00189201
0.00162152
0.00138415
0.00108439
0.00073887
0.000377166
-2.30099e-05
-0.000463131
-0.000922079
-0.00134973
-0.00176795
0.00147527
0.00125103
0.000968434
0.000647065
0.000307402
-6.35247e-05
-0.000464971
-0.000877373
-0.00126477
-0.00164081
0.00135256
0.0011388
0.000873702
0.000572195
0.000253583
-9.16454e-05
-0.00046006
-0.00083541
-0.0011908
-0.00153387
0.00124928
0.00104467
0.00079532
0.000513366
0.000213271
-0.000109209
-0.000447718
-0.000789767
-0.00111725
-0.00143279
0.00116461
0.000967572
0.000732795
0.000467448
0.000184524
-0.000117248
-0.000430889
-0.000746722
-0.00105149
-0.00134505
0.00109437
0.000903816
0.000681639
0.000431861
0.000164529
-0.000119153
-0.000411707
-0.000705473
-0.000990787
-0.00126605
0.00103974
0.000854697
0.000643271
0.000406837
0.000153289
-0.0001146
-0.000390166
-0.000666995
-0.000936984
-0.00119771
0.000995586
0.000814722
0.000612168
0.000387576
0.000146648
-0.000107466
-0.000368942
-0.000632126
-0.0008897
-0.00113889
0.000966576
0.000789539
0.000593606
0.00037806
0.000147037
-9.63857e-05
-0.000347262
-0.000600862
-0.000849796
-0.00109042
0.000944835
0.00077032
0.000579765
0.000372445
0.000150415
-8.4069e-05
-0.000325906
-0.000571641
-0.000814735
-0.00104931
0.000942518
0.000770095
0.00058141
0.000376727
0.000157928
-7.29684e-05
-0.000311125
-0.000553731
-0.000794433
-0.00102945
-0.00566921
-0.00583856
-0.00596493
-0.00646438
-0.00832146
-0.0109274
-0.0129962
-0.0136763
-0.0127549
-0.0104442
-0.00731037
-0.00403616
-0.00117216
0.000913306
0.00222043
0.00281522
0.00293711
0.00279395
0.00251991
0.0022069
0.00190302
0.00162947
0.00139344
0.00119165
0.00101743
0.000866852
0.000736697
0.000624488
0.000528041
0.000445429
0.000374577
0.00031369
0.000260832
0.00021453
0.00017332
0.000136213
0.00010225
7.07838e-05
4.13309e-05
1.33217e-05
-0.00578881
-0.00596102
-0.00604823
-0.00682418
-0.00909463
-0.0118595
-0.0139278
-0.0146098
-0.013562
-0.0111268
-0.00787327
-0.00450751
-0.00155167
0.000634854
0.00199569
0.00265093
0.00281008
0.00269618
0.00244532
0.00214854
0.00185629
0.00159202
0.00136378
0.00116775
0.000998821
0.000852278
0.000725508
0.000616304
0.000522394
0.000441823
0.000372523
0.000312694
0.000260526
0.000214596
0.000173612
0.000136577
0.000102653
7.11465e-05
4.16111e-05
1.35024e-05
-0.00542704
-0.00571625
-0.00631622
-0.00772036
-0.0103863
-0.0132275
-0.0154058
-0.0161456
-0.014997
-0.0122859
-0.00888087
-0.00538403
-0.0022649
5.6927e-05
0.00152439
0.00227493
0.00250812
0.00245314
0.00225522
0.00200148
0.00174199
0.00150263
0.00129498
0.00111722
0.000963124
0.000828789
0.000711315
0.000608521
0.000518683
0.000440282
0.000372219
0.000313017
0.000261142
0.00021532
0.000174398
0.000137389
0.000103461
7.19208e-05
4.22405e-05
1.38802e-05
-0.005304
-0.00542789
-0.00596399
-0.0081301
-0.0113935
-0.0146116
-0.0169545
-0.0177335
-0.0164453
-0.0134324
-0.00980882
-0.0062738
-0.00308891
-0.000665492
0.000904675
0.0017634
0.00209026
0.00210683
0.00197683
0.00178613
0.00157929
0.00138317
0.00120823
0.001053
0.000914931
0.000792198
0.000683393
0.000587393
0.00050302
0.000429216
0.000364446
0.000307537
0.000257368
0.000212815
0.000172816
0.000136461
0.000102989
7.17826e-05
4.22627e-05
1.39552e-05
-0.00502631
-0.00544725
-0.00605561
-0.00846625
-0.0119033
-0.0153733
-0.0178581
-0.018668
-0.0173289
-0.0141195
-0.0103841
-0.00685232
-0.00374747
-0.00136352
0.000243337
0.0011752
0.00161034
0.00172448
0.0016702
0.00153898
0.00138276
0.00122975
0.00109159
0.000966883
0.000851586
0.000744998
0.000647987
0.000560828
0.000483163
0.000414336
0.000353295
0.000299139
0.000250904
0.000207769
0.000169012
0.000133622
0.000100951
7.04947e-05
4.15985e-05
1.37757e-05
-0.00514357
-0.00525588
-0.00577834
-0.00812303
-0.0117171
-0.0155176
-0.0180829
-0.0188941
-0.0175266
-0.0143746
-0.0106517
-0.00715195
-0.00415655
-0.00185766
-0.000306867
0.000605357
0.00109404
0.00130861
0.0013551
0.00130478
0.00120265
0.00108809
0.00098104
0.000881105
0.000785015
0.000693331
0.000607756
0.000529319
0.000458388
0.000394848
0.000338141
0.000287621
0.000242521
0.00020199
0.000165037
0.000131081
9.92019e-05
6.95739e-05
4.11547e-05
1.3617e-05
-0.00515526
-0.00560814
-0.00543743
-0.00768228
-0.010836
-0.0144092
-0.0168297
-0.017743
-0.016802
-0.0140478
-0.010593
-0.00725098
-0.00439185
-0.00220055
-0.000693925
0.0002039
0.000700021
0.000948161
0.00105135
0.00106934
0.00102717
0.000952943
0.00087311
0.00079506
0.00071667
0.0006383
0.00056288
0.000492876
0.000429104
0.000371433
0.000319455
0.000272489
0.000229874
0.000191078
0.000155655
0.000123267
9.36094e-05
6.54199e-05
3.86145e-05
1.28714e-05
-0.00545759
-0.0036541
-0.00504776
-0.00703764
-0.00969098
-0.0128396
-0.0150286
-0.0160023
-0.0154596
-0.0131774
-0.0100869
-0.00701852
-0.00441169
-0.00244811
-0.00109385
-0.000195696
0.000367293
0.000674653
0.000811946
0.000859652
0.000854133
0.00081685
0.000764449
0.000704874
0.00064174
0.00057729
0.000513546
0.000452395
0.000395538
0.00034401
0.00029746
0.000255392
0.000217381
0.000182757
0.000150786
0.000120797
9.22929e-05
6.4824e-05
3.84604e-05
1.27342e-05
-0.00423659
-0.00482192
-0.00584861
-0.00700283
-0.00890533
-0.0115435
-0.013348
-0.0141511
-0.0137341
-0.0117916
-0.00907274
-0.0064092
-0.00417606
-0.00248864
-0.00134645
-0.000561086
-3.92632e-06
0.000360599
0.00056941
0.000661047
0.000681822
0.000669401
0.000643325
0.00060865
0.000562617
0.000509713
0.000457289
0.000407121
0.000359664
0.000315075
0.000273527
0.000235343
0.000199853
0.000166885
0.000136402
0.000108319
8.22399e-05
5.77915e-05
3.42044e-05
1.13948e-05
-0.00374883
-0.00441702
-0.00524224
-0.0063965
-0.00801033
-0.00993563
-0.0112591
-0.0118484
-0.0114831
-0.00987983
-0.00771953
-0.00567312
-0.00394597
-0.00255027
-0.00151473
-0.000781353
-0.000259112
9.66889e-05
0.000326283
0.000454174
0.000505462
0.000517561
0.00050943
0.000483634
0.000451422
0.000421052
0.000389398
0.000353591
0.000315422
0.000278634
0.000244838
0.000213021
0.000183683
0.00015648
0.000130621
0.000105613
8.12689e-05
5.73715e-05
3.41942e-05
1.13459e-05
-0.00347254
-0.00415874
-0.0049792
-0.00597743
-0.00712966
-0.00841092
-0.00931163
-0.00967159
-0.00933358
-0.00815104
-0.00655154
-0.00501341
-0.00368092
-0.00255579
-0.00164479
-0.000957281
-0.000460017
-0.000115669
0.000113551
0.000254518
0.000332821
0.000373436
0.000385542
0.000376717
0.000358589
0.000337349
0.000314318
0.000291652
0.000269634
0.000246001
0.000219177
0.00019089
0.000163472
0.000137068
0.000112481
8.97224e-05
6.84037e-05
4.82554e-05
2.86082e-05
9.52983e-06
-0.00314406
-0.00380245
-0.00453897
-0.00533592
-0.0061858
-0.00709516
-0.00772761
-0.00792144
-0.00763237
-0.00681078
-0.00567728
-0.00450296
-0.00343166
-0.0024929
-0.0017145
-0.00111505
-0.000665452
-0.00033019
-9.31926e-05
6.01988e-05
0.000156145
0.000221562
0.00026396
0.000274484
0.000260789
0.00024606
0.000238388
0.000230805
0.000217539
0.000200648
0.000182905
0.000164419
0.000145834
0.000127132
0.000107895
8.81854e-05
6.83478e-05
4.84924e-05
2.90517e-05
9.6575e-06
-0.00289419
-0.00346947
-0.00412249
-0.00478557
-0.00547093
-0.00615869
-0.0066
-0.00670147
-0.00645776
-0.00583352
-0.00498616
-0.00407927
-0.0032135
-0.00242689
-0.00175474
-0.00122555
-0.000813645
-0.000489349
-0.000240651
-6.71451e-05
4.00108e-05
0.000109856
0.00016012
0.000188895
0.000206127
0.000219358
0.000222045
0.000211651
0.000194181
0.000177714
0.000159133
0.000140661
0.000121648
0.000103063
8.53424e-05
6.86807e-05
5.28036e-05
3.75397e-05
2.23315e-05
7.44896e-06
-0.00265451
-0.00315686
-0.00372713
-0.00429752
-0.00485155
-0.00535786
-0.00567308
-0.00572499
-0.00552763
-0.00506415
-0.00441958
-0.00371279
-0.00301259
-0.00235826
-0.00177746
-0.00129671
-0.000917327
-0.00062039
-0.000392593
-0.00021827
-8.94667e-05
-1.17499e-06
5.39915e-05
8.75229e-05
0.000102507
0.000105873
0.000110595
0.000122632
0.000136527
0.000140106
0.000135216
0.000124932
0.000112208
9.85598e-05
8.43129e-05
6.94626e-05
5.42444e-05
3.87343e-05
2.33584e-05
7.78509e-06
-0.00245215
-0.00288829
-0.00338552
-0.00387347
-0.00432591
-0.00472417
-0.0049657
-0.00499758
-0.00483372
-0.00447166
-0.00396583
-0.00340508
-0.00283414
-0.00228494
-0.0017879
-0.00136549
-0.00101805
-0.000734272
-0.000510529
-0.000339611
-0.000209469
-0.000111641
-3.10989e-05
2.43589e-05
4.69777e-05
5.69353e-05
6.78066e-05
8.15361e-05
9.06164e-05
9.26639e-05
9.00796e-05
8.43575e-05
7.63945e-05
6.71461e-05
5.72741e-05
4.72048e-05
3.6963e-05
2.66501e-05
1.59667e-05
5.33875e-06
-0.00226853
-0.00265339
-0.00308002
-0.00350024
-0.00387636
-0.00418675
-0.00437677
-0.00440636
-0.00427745
-0.00399985
-0.00359922
-0.00313688
-0.00266584
-0.0022092
-0.00178267
-0.00140458
-0.00108639
-0.000822372
-0.000606215
-0.000434052
-0.000302977
-0.000205143
-0.000131565
-7.51698e-05
-3.12803e-05
6.65182e-06
3.99872e-05
6.23588e-05
7.53196e-05
8.11186e-05
8.19566e-05
7.9363e-05
7.43585e-05
6.75523e-05
5.93238e-05
4.98772e-05
3.9577e-05
2.86029e-05
1.74302e-05
5.82452e-06
-0.0021057
-0.00244636
-0.00281644
-0.00317842
-0.00349852
-0.00375832
-0.00391181
-0.00393454
-0.00383245
-0.00361326
-0.00329515
-0.00292037
-0.00252897
-0.00213988
-0.0017698
-0.00143633
-0.0011481
-0.000905461
-0.000706589
-0.00054084
-0.000402606
-0.000289953
-0.000201078
-0.000137481
-8.92293e-05
-5.46098e-05
-2.78523e-05
-5.77303e-06
1.15083e-05
2.36493e-05
3.12411e-05
3.50762e-05
3.59296e-05
3.4548e-05
3.15311e-05
2.73637e-05
2.22717e-05
1.65371e-05
1.0072e-05
3.39198e-06
-0.00195733
-0.00226423
-0.00258581
-0.00290068
-0.00317633
-0.00339038
-0.00352172
-0.00354956
-0.00346821
-0.0032916
-0.00303927
-0.00273466
-0.00240317
-0.00206999
-0.00175188
-0.00145963
-0.00119761
-0.000966488
-0.000768818
-0.000606867
-0.000475253
-0.000368837
-0.000282499
-0.000208314
-0.000146368
-9.44913e-05
-5.28233e-05
-2.07887e-05
2.60978e-06
1.87747e-05
2.92734e-05
3.53619e-05
3.79955e-05
3.78345e-05
3.54354e-05
3.11823e-05
2.55749e-05
1.89146e-05
1.17394e-05
3.92588e-06
-0.00182527
-0.00210383
-0.0023889
-0.00266485
-0.00290556
-0.00309347
-0.00320577
-0.00323128
-0.0031728
-0.00303345
-0.00282434
-0.00257145
-0.00229735
-0.00201447
-0.00173555
-0.0014738
-0.00123604
-0.0010262
-0.000846192
-0.000690418
-0.000553981
-0.000437992
-0.000341582
-0.000263247
-0.000199671
-0.000149996
-0.000109951
-7.72373e-05
-5.11322e-05
-3.09701e-05
-1.5844e-05
-4.88476e-06
2.64583e-06
7.3766e-06
9.83965e-06
1.05152e-05
9.73314e-06
7.91123e-06
5.06659e-06
1.75192e-06
-0.00170699
-0.00196365
-0.00221868
-0.00246292
-0.00267582
-0.00283959
-0.00294084
-0.00297034
-0.00292594
-0.00281355
-0.00264531
-0.00243698
-0.00220419
-0.0019599
-0.00171713
-0.00148692
-0.00127326
-0.00107591
-0.00089791
-0.000744037
-0.000612816
-0.000499657
-0.00040357
-0.000319945
-0.000248375
-0.000187039
-0.000135789
-9.41482e-05
-6.12118e-05
-3.58769e-05
-1.69078e-05
-3.23831e-06
6.06727e-06
1.17555e-05
1.45199e-05
1.48501e-05
1.33536e-05
1.04793e-05
6.78966e-06
2.26676e-06
-0.00160299
-0.00184179
-0.00207405
-0.0022931
-0.00248349
-0.00263166
-0.00272365
-0.00275344
-0.00272276
-0.00263428
-0.0024953
-0.00232062
-0.0021243
-0.00191626
-0.001705
-0.00149858
-0.00130261
-0.00112017
-0.000955628
-0.000809046
-0.000676824
-0.000558735
-0.000454637
-0.000365699
-0.000290783
-0.000229089
-0.000178331
-0.00013652
-0.00010241
-7.49559e-05
-5.31456e-05
-3.60689e-05
-2.30471e-05
-1.34585e-05
-6.75788e-06
-2.41907e-06
-1.82246e-08
1.30265e-06
1.28443e-06
5.21197e-07
-0.00151188
-0.00173699
-0.00195131
-0.00215023
-0.00232252
-0.00245665
-0.00254207
-0.00257411
-0.00255365
-0.00248301
-0.00236906
-0.00222418
-0.00205873
-0.00187905
-0.00169319
-0.00151014
-0.00133412
-0.00116501
-0.00100508
-0.000858203
-0.000726232
-0.000608138
-0.000503469
-0.000411861
-0.000331641
-0.000262338
-0.00020271
-0.000152848
-0.0001121
-7.9427e-05
-5.37327e-05
-3.41015e-05
-1.94908e-05
-9.05578e-06
-2.01063e-06
2.06314e-06
3.4247e-06
3.96145e-06
3.02655e-06
1.00297e-06
-0.00143352
-0.00164806
-0.00184864
-0.00203229
-0.00219019
-0.00231325
-0.00239309
-0.00242617
-0.0024137
-0.00235826
-0.00226538
-0.00214424
-0.00200325
-0.00184911
-0.0016887
-0.00152657
-0.00136494
-0.00120596
-0.00105381
-0.00091196
-0.000780328
-0.000658474
-0.000547684
-0.000449268
-0.000364397
-0.000292159
-0.000231945
-0.000181992
-0.000140705
-0.000106923
-7.94491e-05
-5.69817e-05
-3.96219e-05
-2.65045e-05
-1.6868e-05
-9.90298e-06
-4.68836e-06
-2.18221e-06
-7.41216e-07
-2.07029e-07
-0.00136739
-0.0015744
-0.00176439
-0.00193532
-0.00208128
-0.00219516
-0.00227031
-0.00230431
-0.00229845
-0.00225485
-0.00217853
-0.00207811
-0.00196044
-0.00182912
-0.00168842
-0.00154355
-0.00139715
-0.00125023
-0.00110418
-0.000962262
-0.000827432
-0.000701712
-0.000587252
-0.00048531
-0.000395799
-0.000317967
-0.000251235
-0.000194841
-0.000148175
-0.000110165
-7.97964e-05
-5.64552e-05
-3.82597e-05
-2.44752e-05
-1.43806e-05
-7.32677e-06
-2.72697e-06
-4.30849e-07
4.41825e-07
3.30964e-07
-0.00131362
-0.00151617
-0.0016994
-0.00186095
-0.00199677
-0.00210212
-0.00217276
-0.00220682
-0.00220507
-0.00217053
-0.00210883
-0.00202633
-0.00192792
-0.00181664
-0.00169606
-0.0015681
-0.00143317
-0.0012926
-0.00114945
-0.00100776
-0.000870685
-0.000741253
-0.000621653
-0.000513941
-0.000419022
-0.000337164
-0.000267874
-0.000210191
-0.000162528
-0.000123642
-9.22277e-05
-6.71287e-05
-4.73334e-05
-3.20562e-05
-2.0569e-05
-1.22251e-05
-6.46113e-06
-2.8582e-06
-9.06961e-07
-1.29424e-07
-0.00126913
-0.00146892
-0.00164811
-0.00180428
-0.00193386
-0.00203248
-0.00209866
-0.00213192
-0.0021328
-0.00210523
-0.00205475
-0.0019865
-0.00190477
-0.00181314
-0.00171153
-0.00159859
-0.00147413
-0.00133965
-0.00119793
-0.00105306
-0.000909958
-0.000773413
-0.000647317
-0.000534096
-0.000434828
-0.000349436
-0.000276881
-0.000216061
-0.000165723
-0.000124698
-9.16478e-05
-6.55279e-05
-4.5198e-05
-2.97454e-05
-1.82889e-05
-1.01171e-05
-4.64879e-06
-1.34603e-06
1.7598e-07
3.96484e-07
-0.00125116
-0.00145091
-0.0016267
-0.00177838
-0.00190361
-0.00199884
-0.00206272
-0.00209513
-0.00209706
-0.00207232
-0.00202634
-0.00196435
-0.00189027
-0.00180603
-0.00171124
-0.00160461
-0.00148537
-0.00135425
-0.00121395
-0.00106899
-0.000924952
-0.000787216
-0.000659395
-0.000544065
-0.000442643
-0.000355315
-0.000281311
-0.000219615
-0.000168798
-0.000127511
-9.42824e-05
-6.79672e-05
-4.73318e-05
-3.15419e-05
-1.96861e-05
-1.11706e-05
-5.3472e-06
-1.76188e-06
-1.96562e-08
3.98819e-07
)
;

boundaryField
{
    inlet
    {
        type            zeroGradient;
    }
    outlet
    {
        type            fixedValue;
        value           uniform 0;
    }
    lowerWall
    {
        type            zeroGradient;
    }
    upperWall
    {
        type            zeroGradient;
    }
    defaultFaces
    {
        type            empty;
    }
}


// ************************************************************************* //
