/*--------------------------------*- C++ -*----------------------------------*\
| =========                 |                                                 |
| \\      /  F ield         | OpenFOAM: The Open Source CFD Toolbox           |
|  \\    /   O peration     | Version:  2112                                  |
|   \\  /    A nd           | Website:  www.openfoam.com                      |
|    \\/     M anipulation  |                                                 |
\*---------------------------------------------------------------------------*/
FoamFile
{
    version     2.0;
    format      ascii;
    arch        "LSB;label=32;scalar=64";
    class       volScalarField;
    location    "0.43";
    object      nut;
}
// * * * * * * * * * * * * * * * * * * * * * * * * * * * * * * * * * * * * * //

dimensions      [0 2 -1 0 0 0 0];

internalField   nonuniform List<scalar> 
1880
(
3.51205e-11
3.76138e-12
5.65643e-13
5.12863e-14
1.74476e-14
1.49106e-13
6.60603e-15
1.11048e-14
1.7573e-15
3.55719e-16
5.69485e-15
1.08746e-14
7.66414e-14
5.25412e-14
8.11136e-14
7.27903e-14
4.54334e-14
3.76932e-13
2.56115e-13
5.17341e-13
1.59385e-12
1.06108e-12
3.55402e-12
4.7571e-12
2.49905e-11
5.40769e-11
7.79517e-11
2.30976e-10
3.41388e-11
1.09816e-10
6.67528e-09
6.81127e-09
7.44889e-10
3.45145e-10
7.14935e-11
1.24772e-11
1.23317e-11
1.82246e-12
9.53742e-12
7.18608e-13
4.5232e-11
1.08559e-11
8.49135e-11
1.72441e-11
4.925e-11
9.07331e-11
5.53095e-11
1.10667e-10
1.07267e-10
2.29205e-11
1.56048e-10
1.3048e-10
7.83126e-11
5.65685e-10
6.44991e-10
4.50052e-10
1.81084e-09
7.49429e-10
1.70315e-09
1.51405e-09
4.46913e-09
5.40064e-10
1.97446e-09
3.47613e-10
1.37058e-11
2.25534e-09
1.53786e-10
1.18537e-09
2.70141e-09
3.249e-09
1.93513e-09
4.36276e-09
1.08003e-09
1.64497e-09
3.63021e-09
3.38247e-09
1.24203e-09
6.82868e-09
5.84706e-10
1.33533e-09
7.11967e-09
4.98968e-10
4.73053e-09
8.21535e-09
1.31765e-09
9.83044e-09
1.05249e-08
5.00059e-09
1.05194e-08
1.65332e-08
1.01396e-09
1.1334e-09
3.03794e-09
3.56067e-10
2.17965e-09
3.54594e-10
9.84512e-09
1.47261e-09
7.93388e-09
1.07756e-09
4.32043e-09
1.39553e-09
1.3645e-08
1.69026e-09
3.77861e-08
2.40386e-09
1.2608e-08
4.85007e-09
1.7408e-09
5.91792e-09
1.84925e-09
5.26534e-09
8.30986e-09
1.31839e-08
1.07482e-08
1.48878e-08
1.7576e-08
2.01869e-08
2.41844e-08
1.71202e-08
1.14412e-09
1.02665e-09
9.63793e-10
1.36953e-09
5.68247e-11
1.94004e-09
1.07216e-09
2.67385e-09
2.26725e-10
3.09463e-09
1.44465e-09
5.3014e-09
2.46337e-08
3.45384e-09
3.54472e-08
3.79949e-09
2.29209e-08
4.01582e-09
1.20391e-08
4.89291e-09
1.98185e-10
6.15774e-09
2.03194e-09
1.20774e-08
4.38371e-09
1.51495e-08
1.17359e-08
1.94521e-08
1.90698e-08
2.72348e-08
2.34563e-10
1.17566e-09
1.68299e-10
1.29958e-11
1.56687e-10
3.08101e-10
7.7754e-10
7.06874e-10
3.51201e-11
6.51234e-11
7.21129e-10
1.01621e-10
6.44519e-11
3.74548e-09
6.34421e-10
2.84077e-09
9.99477e-10
3.70081e-09
3.30371e-09
5.74419e-09
3.93443e-09
8.34148e-09
6.64879e-09
9.5122e-09
8.2026e-09
1.23997e-08
1.29769e-08
1.7177e-08
1.93841e-08
1.93659e-08
4.77101e-10
6.483e-10
3.34936e-10
2.75334e-10
4.81689e-10
7.22747e-10
6.43613e-10
5.54835e-10
7.26409e-10
1.96761e-10
1.55421e-09
7.1086e-11
2.12334e-09
1.79184e-09
2.03977e-09
1.52805e-09
2.60318e-09
2.71486e-09
3.90089e-09
3.62846e-09
5.158e-09
5.80814e-09
6.56118e-09
8.89467e-09
8.65726e-09
1.11752e-08
1.29734e-08
1.45515e-08
1.72074e-08
1.95153e-08
3.95446e-10
6.14385e-10
6.47751e-10
3.47874e-12
1.08864e-09
2.54047e-10
1.04223e-09
1.54374e-09
2.21425e-09
1.30447e-09
2.64361e-09
1.14423e-09
3.35642e-09
3.75395e-09
3.41427e-09
2.73525e-09
3.93241e-09
4.04605e-09
5.00506e-09
4.43945e-09
6.30622e-09
6.48369e-09
7.74552e-09
8.42572e-09
9.96929e-09
1.11351e-08
1.3535e-08
1.41765e-08
1.82863e-08
1.70688e-08
1.38156e-10
1.48403e-10
5.97512e-10
1.59234e-10
1.24551e-09
3.84651e-10
1.64846e-09
1.89649e-09
3.15945e-09
2.18073e-09
3.09589e-09
1.50887e-09
3.58598e-09
2.63497e-09
3.49394e-09
2.68382e-09
4.06318e-09
4.2596e-09
5.19147e-09
4.51604e-09
6.28841e-09
6.58505e-09
7.57942e-09
8.49251e-09
9.92675e-09
1.06179e-08
1.28616e-08
1.36841e-08
1.66242e-08
1.71962e-08
1.51129e-10
1.87612e-10
7.83183e-10
2.95841e-10
1.61273e-09
8.92468e-10
2.08859e-09
2.67942e-09
3.34378e-09
2.60469e-09
3.10713e-09
2.03881e-09
3.67493e-09
3.23083e-09
3.83644e-09
3.25997e-09
4.45139e-09
4.78976e-09
5.53476e-09
4.92393e-09
6.5559e-09
6.99295e-09
7.99359e-09
8.52652e-09
1.0265e-08
1.08461e-08
1.28354e-08
1.32846e-08
1.63097e-08
1.62338e-08
2.15538e-11
2.36702e-10
8.9765e-10
6.65309e-10
1.64404e-09
1.3251e-09
2.17135e-09
3.05457e-09
2.98901e-09
2.80457e-09
2.79797e-09
2.26745e-09
3.29636e-09
3.28596e-09
3.7398e-09
3.65455e-09
4.47621e-09
5.14545e-09
5.46915e-09
5.20413e-09
6.46531e-09
7.18798e-09
7.99146e-09
8.57157e-09
1.01348e-08
1.07267e-08
1.23393e-08
1.29947e-08
1.52163e-08
1.58973e-08
2.02306e-10
4.43617e-10
1.02533e-09
1.0196e-09
1.824e-09
1.5929e-09
2.3412e-09
2.66029e-09
3.03755e-09
2.54685e-09
2.97051e-09
2.60231e-09
3.53513e-09
3.46064e-09
4.06353e-09
3.81312e-09
4.78578e-09
5.1663e-09
5.70249e-09
5.51569e-09
6.65058e-09
7.32193e-09
8.2344e-09
8.60567e-09
1.01585e-08
1.07069e-08
1.21323e-08
1.26881e-08
1.47318e-08
1.53943e-08
1.66756e-10
4.95785e-10
1.03341e-09
1.19155e-09
1.67618e-09
1.80101e-09
2.1354e-09
2.73048e-09
2.52931e-09
2.64349e-09
2.94175e-09
2.81704e-09
3.38685e-09
3.83234e-09
3.97286e-09
4.09125e-09
4.66395e-09
5.39449e-09
5.62353e-09
5.75797e-09
6.67998e-09
7.54383e-09
8.16779e-09
8.654e-09
9.9452e-09
1.06649e-08
1.17472e-08
1.24429e-08
1.40019e-08
1.48808e-08
6.97195e-11
4.79934e-10
1.08361e-09
1.2619e-09
1.81052e-09
1.84541e-09
2.25578e-09
2.49565e-09
2.66921e-09
2.71222e-09
3.05736e-09
3.14085e-09
3.66059e-09
3.87574e-09
4.2675e-09
4.2624e-09
4.92461e-09
5.40071e-09
5.85201e-09
6.11067e-09
6.88836e-09
7.56586e-09
8.34184e-09
8.74206e-09
9.94496e-09
1.06213e-08
1.16479e-08
1.23059e-08
1.36941e-08
1.45355e-08
1.80444e-11
1.21272e-10
6.4029e-10
1.14398e-09
1.42844e-09
1.84305e-09
2.01638e-09
2.44654e-09
2.30146e-09
2.59878e-09
2.94494e-09
3.00398e-09
3.46965e-09
4.02164e-09
4.06199e-09
4.27793e-09
4.80358e-09
5.49142e-09
5.75175e-09
6.09661e-09
6.87516e-09
7.6614e-09
8.12669e-09
8.69998e-09
9.74317e-09
1.05212e-08
1.13132e-08
1.1984e-08
1.31294e-08
1.40231e-08
5.9574e-11
8.88464e-10
1.29742e-09
1.41434e-09
1.61002e-09
1.82806e-09
2.01038e-09
2.28448e-09
2.49677e-09
2.76282e-09
2.89238e-09
3.20996e-09
3.57935e-09
3.95405e-09
4.13518e-09
4.43092e-09
4.85891e-09
5.46564e-09
5.85746e-09
6.34117e-09
6.98813e-09
7.56029e-09
8.2129e-09
8.79453e-09
9.71698e-09
1.04382e-08
1.1257e-08
1.19296e-08
1.29402e-08
1.37791e-08
5.3812e-12
2.22703e-12
1.40272e-10
8.83713e-10
1.13566e-09
1.2462e-09
1.33135e-09
1.53597e-09
1.53138e-09
2.0698e-09
2.39104e-09
2.64908e-09
3.13511e-09
3.90009e-09
3.79813e-09
4.26796e-09
4.77837e-09
5.40266e-09
5.66245e-09
6.16809e-09
6.89493e-09
7.48188e-09
7.86786e-09
8.47704e-09
9.33138e-09
9.96452e-09
1.06775e-08
1.13978e-08
1.23421e-08
1.31904e-08
2.04338e-09
2.56939e-09
1.65043e-09
1.63224e-09
1.91517e-09
2.29562e-09
3.08019e-09
3.48891e-09
3.40762e-09
2.93802e-09
1.9198e-09
1.2726e-09
5.09243e-10
3.94438e-10
1.96798e-10
1.04534e-10
2.15883e-11
5.56801e-12
4.33494e-12
1.45815e-12
5.26749e-13
3.47604e-12
2.49538e-12
1.028e-12
2.76586e-12
3.18508e-11
1.0099e-10
2.58196e-10
3.94102e-10
7.11304e-10
5.06048e-09
5.60398e-09
9.17688e-10
1.66778e-10
3.18811e-11
4.17053e-12
7.36784e-13
3.71969e-14
8.34661e-14
5.65213e-13
7.90188e-13
7.44783e-13
1.56122e-12
1.02617e-12
9.10344e-13
2.21399e-12
3.54671e-12
3.48783e-12
3.20051e-12
3.95586e-12
5.55529e-12
5.93779e-12
7.32017e-12
8.71922e-12
7.44538e-12
5.88848e-12
5.49903e-12
5.53171e-12
5.10122e-12
3.61406e-12
3.46987e-11
4.68218e-12
2.39029e-13
1.17956e-14
6.34227e-14
3.02554e-14
1.73746e-15
5.66966e-16
6.01425e-18
8.87342e-16
7.62611e-16
8.81829e-16
8.47328e-16
3.28068e-15
5.00242e-15
5.1005e-15
2.15588e-15
6.23765e-15
2.67048e-14
4.36983e-14
1.88332e-14
9.14994e-15
2.00962e-14
7.20571e-14
1.20994e-13
1.11184e-13
5.16163e-14
1.73091e-14
6.41801e-15
2.31414e-15
5.35054e-09
6.79536e-10
4.26768e-10
2.31521e-10
1.3897e-11
4.61613e-11
5.55704e-12
6.0351e-11
3.87164e-10
2.08795e-09
3.6225e-09
1.10274e-08
7.81996e-09
2.2761e-08
1.62525e-09
7.17163e-09
4.40237e-09
1.04398e-08
1.3351e-10
2.86096e-08
2.40715e-08
1.18493e-08
1.51428e-08
6.04524e-08
3.16549e-08
8.91661e-09
3.46066e-08
7.53741e-08
2.40519e-08
8.32594e-08
5.18231e-08
3.71366e-08
2.04617e-08
3.31768e-08
4.32161e-08
3.1049e-08
1.26388e-08
4.63901e-08
5.12068e-08
3.01317e-08
3.4067e-08
3.30781e-08
3.30298e-08
3.14885e-08
3.60165e-08
3.86648e-08
2.56122e-08
3.61676e-08
4.27932e-08
4.06972e-08
3.67708e-08
2.69927e-08
2.69552e-08
2.73187e-08
3.35532e-08
3.44512e-08
2.99027e-08
3.31922e-08
3.73271e-08
3.18396e-08
2.75398e-08
2.48922e-08
2.74166e-08
2.63219e-08
2.73224e-08
3.14599e-08
3.13945e-08
2.89088e-08
3.28734e-08
3.04323e-08
2.90072e-08
2.2902e-08
2.46873e-08
2.50024e-08
2.67788e-08
2.90633e-08
2.98944e-08
2.90133e-08
2.76793e-08
2.81173e-08
2.36142e-08
2.12201e-08
2.35623e-08
2.39303e-08
2.42268e-08
2.63545e-08
2.77179e-08
2.73021e-08
2.60195e-08
2.67402e-08
2.26145e-08
2.0047e-08
2.19435e-08
2.24138e-08
2.33865e-08
2.45383e-08
2.52862e-08
2.5864e-08
2.39381e-08
2.35038e-08
1.99804e-08
1.88524e-08
2.08386e-08
2.14446e-08
2.16128e-08
2.28607e-08
2.37399e-08
2.38108e-08
2.18755e-08
2.16831e-08
1.88446e-08
1.79689e-08
1.96561e-08
2.02464e-08
2.0707e-08
2.14571e-08
2.17355e-08
2.18908e-08
2.07617e-08
1.97643e-08
1.72796e-08
1.71241e-08
1.8677e-08
1.93106e-08
1.94543e-08
2.02846e-08
2.04136e-08
2.00868e-08
1.90702e-08
1.81592e-08
1.65493e-08
1.6442e-08
1.77843e-08
1.83456e-08
1.85867e-08
1.8936e-08
1.90231e-08
1.86869e-08
1.79422e-08
1.67983e-08
1.54221e-08
1.57453e-08
1.69167e-08
1.75269e-08
1.76403e-08
1.79959e-08
1.78238e-08
1.73349e-08
1.65845e-08
1.55419e-08
1.50719e-08
1.52362e-08
1.6232e-08
1.66559e-08
1.68997e-08
1.69992e-08
1.68924e-08
1.64494e-08
1.58292e-08
1.48503e-08
1.40438e-08
1.42214e-08
1.52211e-08
1.54798e-08
1.58569e-08
1.5619e-08
1.57177e-08
1.48124e-08
1.45854e-08
1.29289e-08
9.9348e-10
5.94657e-10
1.14271e-09
1.01663e-09
1.61242e-09
1.42919e-09
1.9901e-09
1.66244e-09
1.95364e-09
1.43392e-09
2.58625e-12
2.21844e-12
5.56672e-13
7.88133e-13
6.40253e-14
9.92455e-13
1.52404e-12
4.51531e-12
6.79088e-12
8.48165e-12
2.29054e-14
9.43256e-15
2.21359e-14
5.5978e-15
7.36931e-16
2.30698e-15
8.5601e-15
3.89979e-14
5.02028e-14
4.35727e-14
6.31214e-08
4.15669e-08
4.78615e-10
3.27891e-10
6.87033e-08
4.68226e-08
1.85307e-08
3.73032e-09
7.72191e-10
2.42084e-10
1.09063e-10
6.19426e-11
6.39341e-11
8.85618e-11
3.26133e-10
8.91722e-10
4.22462e-09
2.30144e-08
8.25434e-08
9.76385e-08
1.93291e-08
2.63002e-09
4.20195e-10
7.90438e-11
1.70089e-11
4.01756e-12
1.23477e-12
7.17143e-13
7.19927e-13
5.55611e-13
1.6864e-13
5.41418e-15
2.8874e-14
2.20925e-13
3.91634e-13
3.6327e-13
2.17028e-13
8.64461e-14
3.8898e-14
1.57947e-14
6.57564e-08
2.39769e-08
6.99625e-09
1.28485e-08
2.03709e-08
1.27486e-07
1.49346e-07
1.90058e-08
3.9255e-07
7.2645e-07
5.95664e-08
1.98103e-11
1.54051e-09
5.54873e-09
1.70965e-08
2.45083e-08
3.21864e-08
5.66871e-08
6.9259e-08
7.54117e-08
7.37567e-08
6.34595e-08
4.75092e-08
2.94344e-08
1.46235e-08
6.04139e-09
2.26174e-09
9.50153e-10
5.16791e-10
3.52525e-10
2.1478e-10
9.76008e-11
2.13268e-11
1.23424e-12
7.01845e-13
4.08267e-12
7.57697e-12
6.17931e-12
4.21635e-12
1.11922e-12
5.84209e-09
6.99885e-07
1.18715e-06
9.79113e-09
9.06247e-08
3.3314e-08
1.66108e-07
8.7174e-07
1.0733e-06
7.01014e-07
1.55637e-07
8.68155e-09
4.74567e-12
7.72727e-11
4.86615e-10
2.0361e-09
6.12614e-09
1.49516e-08
3.07213e-08
4.85206e-08
6.08044e-08
6.28227e-08
5.89658e-08
4.97713e-08
3.73077e-08
2.64064e-08
1.93955e-08
1.49039e-08
1.09755e-08
8.07073e-09
6.94496e-09
6.27273e-09
4.68903e-09
1.64359e-09
1.3344e-10
2.01701e-12
7.22331e-11
9.52755e-11
1.05371e-10
2.53888e-11
8.55913e-08
8.98714e-10
1.71596e-07
1.04827e-07
1.21232e-07
6.98545e-09
6.28473e-07
1.1259e-06
1.35465e-06
1.03499e-06
3.18775e-07
2.62005e-08
9.34023e-10
3.67201e-11
5.29658e-11
4.82516e-10
2.49608e-09
9.00076e-09
1.832e-08
3.34142e-08
5.25261e-08
5.86217e-08
5.54946e-08
4.9646e-08
3.96317e-08
2.84281e-08
2.1036e-08
1.87212e-08
1.68535e-08
1.43413e-08
1.14035e-08
9.1271e-09
6.03587e-09
2.29233e-09
1.1234e-09
1.25051e-09
2.3952e-09
2.00054e-09
8.28289e-09
1.28747e-09
1.1107e-07
8.07242e-09
3.25129e-09
1.67685e-07
3.98796e-08
1.71039e-07
1.26255e-06
1.49272e-06
1.6209e-06
1.32614e-06
6.07926e-07
7.9199e-08
6.37676e-09
8.68444e-10
2.86056e-10
2.82748e-13
6.15726e-10
8.05e-09
2.44401e-08
3.32666e-08
4.82927e-08
6.03918e-08
5.41059e-08
4.26746e-08
3.01074e-08
1.99817e-08
1.42965e-08
9.86053e-09
5.00887e-09
1.83023e-09
6.64813e-10
1.75375e-11
8.43803e-09
4.83545e-09
2.37549e-10
4.60947e-11
1.90694e-14
5.40399e-12
6.05814e-11
3.61367e-10
1.11414e-07
7.28144e-08
1.24586e-07
1.73394e-07
3.10616e-08
4.48504e-09
3.09084e-07
9.79251e-07
1.54053e-06
1.39778e-06
6.92635e-07
1.41874e-07
2.54429e-08
8.99261e-09
5.38527e-09
5.95801e-10
1.64671e-11
3.43531e-09
3.40627e-08
5.98125e-08
5.74774e-08
5.36671e-08
3.69072e-08
2.4078e-08
1.4712e-08
7.88459e-09
8.58912e-09
9.66603e-09
7.41718e-09
2.56904e-09
7.3518e-11
2.33729e-10
2.30583e-08
3.7168e-08
3.18189e-10
2.79854e-11
3.76835e-12
3.84793e-11
1.88588e-10
3.63304e-10
8.02579e-09
3.85505e-08
1.91884e-07
2.53636e-07
8.87047e-08
1.14954e-08
6.13046e-07
1.3707e-06
1.81675e-06
1.65653e-06
9.08839e-07
2.33796e-07
7.57849e-08
4.71922e-08
2.99523e-08
6.39428e-09
3.94891e-11
6.72725e-09
3.50741e-08
6.1901e-08
4.17787e-08
2.90346e-08
8.2388e-09
1.12078e-09
4.3491e-09
1.0639e-08
1.46822e-08
1.45756e-08
7.7083e-09
6.07627e-09
8.99539e-09
2.0825e-09
1.15496e-10
1.16723e-09
2.28035e-09
8.02376e-12
1.12927e-08
1.73926e-08
5.35715e-10
6.23855e-09
1.78804e-08
2.06171e-08
1.73334e-10
1.1196e-07
1.99535e-07
6.95298e-08
3.86695e-09
7.92887e-07
1.82427e-06
1.92027e-06
1.39258e-06
5.05714e-07
2.07222e-07
1.51721e-07
7.5874e-08
1.19678e-08
1.7688e-10
3.36103e-08
6.73332e-08
6.25096e-08
2.85531e-08
2.17827e-08
2.67319e-08
2.3327e-08
2.24203e-08
2.3117e-08
2.20996e-08
1.86046e-08
1.17348e-08
5.96989e-09
6.47492e-09
9.84017e-09
1.2268e-08
1.09371e-08
8.43273e-09
5.35695e-10
1.06604e-09
4.72739e-09
7.47632e-09
1.13321e-09
5.16792e-07
1.78901e-09
8.98414e-09
2.16923e-09
2.1781e-09
4.57194e-11
1.00114e-08
3.18697e-07
1.32188e-06
1.65331e-06
1.35436e-06
6.95304e-07
3.18474e-07
2.13692e-07
1.07705e-07
9.64246e-11
3.44564e-08
7.29231e-08
5.4082e-08
4.2436e-08
3.81699e-08
3.71168e-08
3.85196e-08
2.85377e-08
1.79625e-08
1.76707e-08
2.29433e-08
2.21937e-08
1.74182e-08
1.20242e-08
9.52323e-09
8.52632e-09
8.65199e-09
6.58991e-09
2.89375e-09
2.09196e-09
1.05813e-10
6.31791e-10
1.49469e-11
1.42168e-09
2.7291e-08
4.28103e-08
1.58217e-08
1.19124e-08
4.33776e-10
1.32645e-08
1.32877e-07
6.68813e-07
1.30323e-06
1.47605e-06
1.32556e-06
9.69907e-07
7.55033e-07
3.72378e-07
3.17269e-10
6.09923e-08
8.23494e-08
7.5353e-08
6.60537e-08
5.30527e-08
4.46792e-08
3.7483e-08
3.47449e-08
3.41666e-08
2.6122e-08
1.39139e-08
1.36167e-08
1.57498e-08
3.75626e-09
4.13135e-10
2.13495e-09
5.37347e-10
3.89992e-09
8.76865e-09
6.45704e-09
8.48388e-13
3.31047e-08
5.81054e-09
6.62249e-10
4.50911e-11
3.03348e-08
2.22401e-08
2.47448e-08
2.23222e-08
2.87264e-09
1.0377e-08
2.04757e-07
8.39004e-07
1.10645e-06
1.11655e-06
9.08225e-07
4.47297e-07
2.61633e-09
3.34293e-08
6.44467e-08
5.50643e-08
6.02487e-08
5.74857e-08
4.57688e-08
3.79841e-08
3.88128e-08
3.69357e-08
3.00098e-08
2.54006e-08
1.00993e-08
2.81373e-09
9.4367e-09
7.71403e-09
1.99703e-10
2.00329e-08
2.82839e-11
2.62656e-09
4.23979e-09
3.76e-09
2.90567e-10
6.28358e-09
3.37007e-10
7.95089e-09
1.04342e-08
2.15997e-09
3.64276e-08
3.26119e-08
3.48904e-08
3.55409e-08
5.72371e-08
4.38081e-08
2.46535e-08
1.4164e-08
7.7111e-10
1.13323e-09
1.43038e-08
4.73679e-08
5.62563e-08
6.66387e-08
6.22787e-08
5.61013e-08
4.76232e-08
4.34171e-08
4.07798e-08
3.77666e-08
3.43088e-08
2.43815e-08
1.91379e-08
2.22555e-08
1.70943e-08
3.06097e-09
1.12467e-09
1.07571e-08
1.27409e-08
1.26123e-08
1.12165e-08
1.82428e-09
1.23709e-10
1.38714e-09
2.68283e-09
1.00328e-07
7.47205e-08
3.65869e-08
5.44749e-12
3.13246e-08
2.69764e-08
3.17301e-08
3.54089e-08
3.10836e-08
3.94158e-08
4.96006e-08
5.40022e-08
5.28246e-08
5.33471e-08
5.97433e-08
6.32255e-08
6.19137e-08
5.85423e-08
5.88302e-08
5.20551e-08
4.8516e-08
4.66347e-08
3.98129e-08
3.79444e-08
3.58893e-08
3.18077e-08
2.87167e-08
2.41318e-08
2.21141e-08
2.14382e-08
1.85633e-08
1.68566e-08
1.58172e-08
1.34746e-08
8.88028e-09
7.07751e-09
6.36846e-09
6.41325e-09
6.35077e-09
8.51025e-09
6.65371e-09
3.88673e-09
2.93182e-09
4.38777e-09
3.81957e-10
3.15376e-08
2.87927e-08
3.06342e-08
2.83521e-08
3.54746e-08
4.17945e-08
4.9894e-08
5.22656e-08
5.27239e-08
5.44146e-08
5.32478e-08
5.01979e-08
5.10955e-08
5.07594e-08
4.69738e-08
3.8391e-08
4.04228e-08
3.76385e-08
3.29371e-08
3.23477e-08
2.99347e-08
2.66736e-08
2.40993e-08
2.24314e-08
2.00657e-08
1.80421e-08
1.60195e-08
1.30219e-08
1.12217e-08
5.27372e-09
1.69362e-09
3.49006e-09
1.78094e-10
3.99154e-08
5.33079e-08
4.00338e-09
1.26619e-09
1.13941e-08
7.73944e-08
4.37848e-09
2.82447e-08
2.53644e-08
2.53025e-08
2.64725e-08
3.2762e-08
3.50301e-08
4.05196e-08
4.46292e-08
4.46159e-08
4.57548e-08
4.46095e-08
4.36234e-08
4.36516e-08
4.34415e-08
4.35337e-08
3.78218e-08
3.06827e-08
3.37739e-08
3.23677e-08
2.7805e-08
2.71468e-08
2.44888e-08
2.03583e-08
2.03337e-08
1.92006e-08
1.40797e-08
1.01314e-08
1.17054e-08
1.08689e-08
8.19351e-09
4.42036e-10
3.36363e-09
4.69461e-09
3.29833e-10
2.42963e-09
3.71122e-09
2.08047e-09
2.70929e-09
2.01725e-09
1.30636e-09
2.71449e-08
2.40934e-08
2.27764e-08
2.54956e-08
3.16121e-08
3.21825e-08
3.33417e-08
3.67195e-08
3.5711e-08
3.65202e-08
3.69598e-08
3.73299e-08
3.64482e-08
3.63588e-08
3.63187e-08
3.46691e-08
2.90554e-08
2.6491e-08
2.95501e-08
2.6913e-08
2.32641e-08
2.31009e-08
2.19886e-08
1.90779e-08
1.84299e-08
1.56927e-08
1.35207e-08
1.1509e-08
1.13581e-08
1.10437e-08
9.16484e-09
6.87441e-09
6.11156e-09
3.70831e-09
3.5482e-09
5.70275e-09
2.28833e-09
3.56968e-08
1.60691e-09
7.95149e-12
2.41591e-08
2.21413e-08
2.12736e-08
2.44356e-08
2.88105e-08
3.01591e-08
2.89429e-08
2.96887e-08
2.94762e-08
3.09351e-08
3.12362e-08
3.1628e-08
3.12476e-08
3.10736e-08
2.93108e-08
2.87057e-08
2.90482e-08
2.55777e-08
2.31046e-08
2.47373e-08
2.37838e-08
2.07016e-08
2.08235e-08
1.91263e-08
1.65967e-08
1.53825e-08
1.52362e-08
1.36542e-08
1.04394e-08
8.78344e-09
7.90645e-09
5.22376e-09
5.59826e-09
1.36112e-09
7.10676e-11
5.22553e-10
2.45249e-09
7.12707e-11
3.96807e-08
3.10359e-09
2.22324e-08
2.05393e-08
1.98516e-08
2.21693e-08
2.50513e-08
2.67919e-08
2.64896e-08
2.53041e-08
2.50139e-08
2.53128e-08
2.68077e-08
2.70343e-08
2.71563e-08
2.60846e-08
2.55105e-08
2.37253e-08
2.39785e-08
2.43591e-08
2.2099e-08
2.0339e-08
2.21349e-08
2.08092e-08
1.83024e-08
1.76701e-08
1.73407e-08
1.54207e-08
1.31351e-08
1.20858e-08
1.00677e-08
8.64698e-09
7.7776e-09
5.73238e-09
6.50869e-09
5.43897e-09
3.27191e-09
1.94062e-09
1.61853e-09
1.54277e-09
8.20996e-12
2.65933e-09
1.97444e-08
1.90848e-08
1.88373e-08
2.016e-08
2.19517e-08
2.25999e-08
2.2769e-08
2.19814e-08
2.1493e-08
2.22148e-08
2.23674e-08
2.27836e-08
2.36765e-08
2.25243e-08
2.14842e-08
2.2188e-08
2.05066e-08
1.97632e-08
2.16058e-08
2.11289e-08
1.9362e-08
1.94524e-08
1.90736e-08
1.76207e-08
1.6335e-08
1.54682e-08
1.35773e-08
1.20607e-08
1.10603e-08
1.01543e-08
9.15642e-09
6.72964e-09
5.48264e-09
4.53211e-09
4.83128e-09
4.2788e-09
3.37902e-09
2.62298e-09
2.50505e-09
2.29146e-09
1.80972e-08
1.75052e-08
1.69698e-08
1.80033e-08
1.93583e-08
1.95464e-08
1.91417e-08
1.91301e-08
1.87139e-08
1.86144e-08
1.9484e-08
1.9647e-08
1.89977e-08
1.96518e-08
1.91165e-08
1.79202e-08
1.86309e-08
1.85384e-08
1.80109e-08
1.89813e-08
1.89814e-08
1.81339e-08
1.77473e-08
1.72501e-08
1.56757e-08
1.42417e-08
1.34539e-08
1.23337e-08
1.05741e-08
8.56086e-09
7.58272e-09
6.86034e-09
6.43882e-09
5.13155e-09
4.16203e-09
2.42781e-09
2.0938e-09
1.41837e-09
1.91857e-09
2.70998e-09
1.65148e-08
1.61467e-08
1.59436e-08
1.62074e-08
1.66643e-08
1.69855e-08
1.65615e-08
1.60718e-08
1.63237e-08
1.64354e-08
1.63892e-08
1.69209e-08
1.68576e-08
1.60841e-08
1.641e-08
1.6087e-08
1.56059e-08
1.65624e-08
1.70608e-08
1.69591e-08
1.7577e-08
1.78683e-08
1.69335e-08
1.58663e-08
1.52259e-08
1.40894e-08
1.24617e-08
1.08394e-08
9.93927e-09
8.81346e-09
7.74551e-09
6.01601e-09
5.09392e-09
4.00493e-09
3.9001e-09
3.28084e-09
2.97531e-09
2.52738e-09
2.46227e-09
2.35718e-09
1.49748e-08
1.45932e-08
1.4196e-08
1.43178e-08
1.45539e-08
1.43065e-08
1.41321e-08
1.39976e-08
1.3698e-08
1.41231e-08
1.45286e-08
1.43234e-08
1.46487e-08
1.45167e-08
1.35798e-08
1.37637e-08
1.41473e-08
1.37064e-08
1.40864e-08
1.47713e-08
1.44246e-08
1.35494e-08
1.28646e-08
1.16529e-08
9.96364e-09
8.33814e-09
7.22909e-09
5.9843e-09
4.6864e-09
3.35088e-09
2.65722e-09
2.06816e-09
1.94099e-09
1.34993e-09
1.24284e-09
6.06462e-10
7.44156e-10
5.44965e-10
9.89583e-10
1.49149e-09
1.42632e-08
1.38261e-08
1.33199e-08
1.29989e-08
1.2891e-08
1.27397e-08
1.23772e-08
1.23068e-08
1.25811e-08
1.2752e-08
1.32251e-08
1.36848e-08
1.33166e-08
1.28043e-08
1.20301e-08
9.9444e-09
7.69939e-09
5.94321e-09
3.91438e-09
2.12631e-09
1.17317e-09
5.49175e-10
1.95274e-10
5.1261e-11
1.49426e-11
2.04239e-12
1.51795e-13
6.93408e-14
9.08081e-16
1.00465e-14
8.99581e-13
1.73533e-12
5.86396e-12
8.65907e-12
2.40038e-11
4.37271e-11
1.13047e-10
1.51378e-10
2.47108e-10
2.30139e-10
1.25493e-08
1.23018e-08
1.18866e-08
1.15945e-08
1.13963e-08
1.11554e-08
1.10067e-08
1.09319e-08
1.0915e-08
1.10981e-08
1.09862e-08
1.01345e-08
8.66443e-09
6.28959e-09
3.31378e-09
1.12179e-09
1.64792e-10
4.72485e-14
9.59261e-11
3.9098e-10
6.63708e-10
9.11933e-10
9.68318e-10
8.4999e-10
6.70086e-10
4.9345e-10
3.04612e-10
1.60157e-10
7.01091e-11
2.8394e-11
8.44533e-12
1.89563e-12
6.21429e-14
2.85538e-13
2.71818e-12
4.50833e-12
1.10605e-11
1.24353e-11
1.879e-11
1.89979e-11
1.45264e-09
1.44788e-09
1.47842e-09
1.63713e-09
1.84999e-09
2.02485e-09
2.17076e-09
2.30468e-09
2.367e-09
2.34082e-09
2.17599e-09
1.76565e-09
1.20959e-09
6.5391e-10
2.23726e-10
2.71194e-11
7.09655e-13
4.19173e-11
1.90086e-10
3.2553e-10
3.43379e-10
3.14617e-10
2.61537e-10
1.90564e-10
1.20443e-10
7.62353e-11
4.51501e-11
2.31103e-11
7.81117e-12
1.87815e-12
2.40499e-13
3.62863e-14
7.59283e-14
3.23912e-13
1.27632e-12
2.39205e-12
4.22644e-12
4.08384e-12
4.27956e-12
1.93957e-12
1.06107e-11
1.13311e-11
1.44837e-11
2.13958e-11
3.13894e-11
4.16112e-11
5.26828e-11
6.59649e-11
7.826e-11
8.99716e-11
9.67145e-11
8.60234e-11
6.5995e-11
4.16105e-11
1.55663e-11
1.77465e-12
5.66986e-13
8.27037e-12
3.03632e-11
5.33783e-11
5.92993e-11
5.35798e-11
4.04433e-11
2.5266e-11
1.24038e-11
5.20149e-12
1.99418e-12
6.31083e-13
6.45064e-14
5.07898e-16
7.38873e-14
2.45798e-13
5.43166e-13
7.13142e-13
9.79256e-13
8.84002e-13
9.62735e-13
6.4685e-13
5.42533e-13
2.66509e-13
4.20592e-14
2.42758e-14
4.01212e-14
7.5277e-14
1.39561e-13
2.42993e-13
3.80135e-13
5.746e-13
8.43199e-13
1.1683e-12
1.55433e-12
1.78381e-12
1.73533e-12
1.47809e-12
5.42796e-13
3.07074e-14
6.06292e-13
3.29827e-12
6.44553e-12
6.61839e-12
3.31421e-12
7.56541e-13
5.90572e-14
2.3661e-15
8.38358e-14
2.01023e-13
2.8906e-13
3.24181e-13
3.4226e-13
2.79462e-13
2.05843e-13
1.28713e-13
8.42783e-14
4.87983e-14
2.93013e-14
1.46235e-14
7.94491e-15
2.42215e-15
2.33939e-15
1.21095e-14
)
;

boundaryField
{
    inlet
    {
        type            calculated;
        value           nonuniform List<scalar> 
20
(
1.74447e-34
1.57829e-32
4.03255e-33
5.3426e-33
1.30216e-35
1.03548e-33
3.83616e-35
1.82599e-33
1.88496e-33
2.83607e-33
2.78212e-33
1.94522e-33
8.39689e-34
6.70854e-35
9.33389e-36
2.71464e-34
1.21851e-34
6.12546e-33
6.23746e-33
1.48939e-34
)
;
    }
    outlet
    {
        type            calculated;
        value           nonuniform List<scalar> 
27
(
1.71534e-34
5.47285e-34
3.06516e-33
1.33922e-33
1.04885e-32
1.54297e-32
9.46995e-36
3.23135e-32
9.40405e-33
3.94796e-33
1.34858e-32
6.66147e-33
1.35487e-32
1.09866e-32
8.7948e-33
1.35424e-33
6.12313e-36
1.24987e-35
3.51466e-35
5.33275e-36
9.68509e-36
4.11873e-35
7.60312e-35
3.42369e-34
5.97713e-33
1.83024e-32
3.93526e-32
)
;
    }
    lowerWall
    {
        type            fixedValue;
        value           uniform 0;
    }
    upperWall
    {
        type            fixedValue;
        value           uniform 0;
    }
    defaultFaces
    {
        type            empty;
    }
}


// ************************************************************************* //
