/*--------------------------------*- C++ -*----------------------------------*\
| =========                 |                                                 |
| \\      /  F ield         | OpenFOAM: The Open Source CFD Toolbox           |
|  \\    /   O peration     | Version:  2112                                  |
|   \\  /    A nd           | Website:  www.openfoam.com                      |
|    \\/     M anipulation  |                                                 |
\*---------------------------------------------------------------------------*/
FoamFile
{
    version     2.0;
    format      ascii;
    arch        "LSB;label=32;scalar=64";
    class       volScalarField;
    location    "0.43";
    object      p;
}
// * * * * * * * * * * * * * * * * * * * * * * * * * * * * * * * * * * * * * //

dimensions      [0 2 -2 0 0 0 0];

internalField   nonuniform List<scalar> 
1880
(
0.00313262
0.00299904
0.00290578
0.00285814
0.00282915
0.00280845
0.0027898
0.00277154
0.00275709
0.00274394
0.00273582
0.00272839
0.0027281
0.00272706
0.00273161
0.00274423
0.00275407
0.00277919
0.00280517
0.00283709
0.00288533
0.00293322
0.00299163
0.00306568
0.00314028
0.00321448
0.00330913
0.00335355
0.00342793
0.00340449
0.00295321
0.00292083
0.00288005
0.00284411
0.00281449
0.00279301
0.0027755
0.00276101
0.00274686
0.00273688
0.00272444
0.00272052
0.0027149
0.00271582
0.00271704
0.00272896
0.00273619
0.00275805
0.00278051
0.00280812
0.00285341
0.00289367
0.00294368
0.00301485
0.00306935
0.00315004
0.00321908
0.00327315
0.00333814
0.0034024
0.00291936
0.00289857
0.00286782
0.00283675
0.00280878
0.00278665
0.00276858
0.00275287
0.00273961
0.00272855
0.00271626
0.00271017
0.0027026
0.00270197
0.00269954
0.00270816
0.00271244
0.00272739
0.00274595
0.0027645
0.00280019
0.00282759
0.00286771
0.00291821
0.00295856
0.00300888
0.00306172
0.00309774
0.00313197
0.00317058
0.00286237
0.00284929
0.00283097
0.00281212
0.00279009
0.0027722
0.00275316
0.00273857
0.00272482
0.00271366
0.00270164
0.00269245
0.00268579
0.00267949
0.00267759
0.00267834
0.00268235
0.00268851
0.00270005
0.00271271
0.002735
0.00275139
0.00277887
0.00280827
0.00283037
0.0028594
0.00288494
0.00289063
0.00290135
0.00289564
0.00283342
0.00282396
0.00280994
0.00279612
0.00277822
0.00276182
0.00274304
0.00272748
0.00271267
0.00270093
0.00268729
0.00267678
0.00266766
0.00265886
0.00265304
0.00264931
0.00264907
0.00264797
0.00265241
0.00265817
0.00266702
0.00267505
0.002685
0.00269813
0.00270374
0.00270952
0.00270602
0.00269353
0.00266753
0.00262687
0.00280554
0.00279752
0.00278584
0.00277492
0.0027607
0.00274601
0.0027291
0.00271216
0.00269795
0.00268395
0.00267025
0.00265705
0.00264677
0.00263464
0.00262508
0.00261737
0.00261168
0.00260476
0.00260142
0.0025988
0.002598
0.00259341
0.00259049
0.00258798
0.00257652
0.00256027
0.002538
0.00249845
0.00244842
0.0023807
0.00278404
0.00277773
0.00276762
0.00275838
0.00274608
0.00273276
0.00271659
0.00269911
0.00268409
0.0026686
0.00265336
0.002638
0.00262525
0.00261026
0.00259649
0.00258479
0.00257352
0.00256086
0.00254946
0.00253971
0.00252831
0.00251329
0.00249751
0.00248017
0.00245356
0.00242074
0.00237729
0.002319
0.00224839
0.00215718
0.00276642
0.00276107
0.00275225
0.00274308
0.00273212
0.00271875
0.00270359
0.00268514
0.00266931
0.00265249
0.00263519
0.00261795
0.00260237
0.00258442
0.00256699
0.0025506
0.00253441
0.0025157
0.00249735
0.00247953
0.00245928
0.0024342
0.00240684
0.00237615
0.00233719
0.0022873
0.00222878
0.00215413
0.00206533
0.00195656
0.00275226
0.00274798
0.00273977
0.00273052
0.00271987
0.00270632
0.00269135
0.00267194
0.00265513
0.0026368
0.00261735
0.00259819
0.00257951
0.00255884
0.00253742
0.00251663
0.00249571
0.00247114
0.002446
0.00242098
0.00239224
0.00235808
0.00232017
0.00227795
0.00222698
0.00216429
0.002092
0.00200346
0.00190061
0.00177921
0.00274182
0.0027378
0.00273023
0.00272046
0.00270957
0.00269542
0.00267985
0.00265973
0.0026413
0.00262164
0.00259991
0.00257848
0.0025572
0.00253322
0.00250825
0.00248322
0.00245752
0.00242751
0.00239612
0.00236427
0.00232803
0.00228523
0.00223825
0.00218568
0.00212491
0.00205106
0.00196695
0.0018679
0.00175406
0.00162244
0.00273459
0.00273099
0.00272364
0.00271312
0.00270141
0.00268621
0.00266961
0.00264849
0.00262831
0.00260722
0.00258307
0.00255949
0.00253552
0.00250834
0.00247998
0.00245075
0.00242063
0.00238561
0.00234818
0.00231039
0.00226725
0.00221659
0.00216169
0.00210046
0.00203083
0.00194798
0.00185422
0.00174654
0.00162418
0.00148511
0.00273125
0.00272748
0.00272
0.00270862
0.00269556
0.00267918
0.00266094
0.00263876
0.00261669
0.00259393
0.00256765
0.00254161
0.00251525
0.00248486
0.00245302
0.00242017
0.0023857
0.002346
0.00230325
0.00225988
0.00221072
0.00215304
0.00209108
0.00202253
0.00194528
0.00185509
0.00175339
0.00163901
0.00151054
0.00136591
0.00273161
0.00272755
0.00271944
0.00270672
0.00269174
0.00267353
0.00265333
0.00262974
0.00260573
0.00258128
0.00255299
0.00252463
0.002496
0.00246251
0.00242745
0.00239127
0.00235265
0.00230879
0.00226124
0.00221287
0.0021585
0.00209458
0.00202646
0.00195204
0.00186826
0.00177192
0.00166404
0.00154437
0.00141128
0.00126246
0.00273684
0.00273225
0.00272323
0.002709
0.00269183
0.00267161
0.00264916
0.00262388
0.0025979
0.00257136
0.00254114
0.00251029
0.0024791
0.00244276
0.00240441
0.00236514
0.00232266
0.00227481
0.00222315
0.00217023
0.00211109
0.00204188
0.00196843
0.00188914
0.00179988
0.0016985
0.00158589
0.00146214
0.00132581
0.00117429
0.00274657
0.00274047
0.00272909
0.00271204
0.00269154
0.00266849
0.0026435
0.0026164
0.00258872
0.00256036
0.00252852
0.00249574
0.00246246
0.0024237
0.00238256
0.00234068
0.00229486
0.00224354
0.00218849
0.00213146
0.00206807
0.00199456
0.00191669
0.00183343
0.00173961
0.00163395
0.00151776
0.001391
0.00125227
0.00109879
0.00276552
0.00275789
0.0027436
0.00272269
0.002698
0.00267161
0.00264397
0.00261497
0.00258566
0.00255539
0.00252178
0.0024867
0.00245068
0.00240931
0.00236525
0.00232051
0.00227142
0.00221678
0.00215875
0.00209795
0.00203048
0.00195346
0.00187195
0.0017851
0.00168746
0.00157846
0.00145986
0.00133101
0.00119045
0.00103602
0.00278608
0.00277412
0.00275396
0.00272752
0.00269859
0.00266949
0.00264
0.00260974
0.0025792
0.00254714
0.00251171
0.00247468
0.00243633
0.00239297
0.00234695
0.00230014
0.00224872
0.00219164
0.00213134
0.00206742
0.00199654
0.00191711
0.00183287
0.00174278
0.00164204
0.00153065
0.00141052
0.00128039
0.00113852
0.000982768
0.00283936
0.00281699
0.00278294
0.0027451
0.00270915
0.00267633
0.00264496
0.00261321
0.00258082
0.00254641
0.00250892
0.00246988
0.00242921
0.00238435
0.00233684
0.00228774
0.00223386
0.00217454
0.00211181
0.00204446
0.00197016
0.00188856
0.00180159
0.00170814
0.00160509
0.00149234
0.00137114
0.00123998
0.00109733
0.000942115
0.00286819
0.0028336
0.0027889
0.00274604
0.00270816
0.00267523
0.00264338
0.00261062
0.00257679
0.00254042
0.00250158
0.00246144
0.00241887
0.00237262
0.00232377
0.00227252
0.00221656
0.00215541
0.00209039
0.00202029
0.00194407
0.00186213
0.00177361
0.00167713
0.00157236
0.00145931
0.00133793
0.00120665
0.00106347
0.00090734
0.00304779
0.00290807
0.00281099
0.00275658
0.00272054
0.00268725
0.00265256
0.00261653
0.00257984
0.0025417
0.00250217
0.00246129
0.00241787
0.00237139
0.00232173
0.00226873
0.00221156
0.00214996
0.00208386
0.0020125
0.00193508
0.00185176
0.00176156
0.00166398
0.00155866
0.00144525
0.00132311
0.00119146
0.00104926
0.000895892
0.0035152
0.00356269
0.00322662
0.00288254
0.00227765
0.00168007
0.000899654
5.85126e-05
-0.0012553
-0.00263909
0.00352418
0.00336479
0.00288937
0.00249511
0.00184685
0.00118022
0.000432664
-0.000516602
-0.00162117
-0.00290069
0.00319296
0.00296734
0.00253272
0.00219614
0.00157385
0.00102886
0.000251018
-0.000517733
-0.00157552
-0.00246212
0.0028927
0.00264551
0.00225776
0.00183023
0.00129984
0.000673044
2.80927e-08
-0.000760387
-0.0016412
-0.00247491
0.00257736
0.00233097
0.0019253
0.00154535
0.00104626
0.000512208
-0.000127033
-0.000814337
-0.00159295
-0.00230563
0.00230445
0.0020439
0.00169821
0.00129466
0.000847572
0.000313567
-0.000268997
-0.000908156
-0.0015917
-0.00224192
0.0020529
0.00180892
0.00146126
0.00108068
0.000658659
0.000178313
-0.000356772
-0.0009432
-0.00155092
-0.00213128
0.00183715
0.00159259
0.00127376
0.000904969
0.000512268
5.99002e-05
-0.000433693
-0.000976206
-0.00152385
-0.00205108
0.00164358
0.00141101
0.00110282
0.000753879
0.000382031
-3.52109e-05
-0.000490549
-0.000989306
-0.00148473
-0.00196164
0.00147756
0.00125158
0.000961026
0.000629668
0.000279722
-0.000110472
-0.000532617
-0.000991997
-0.00144646
-0.00188348
0.00133195
0.00111419
0.000837483
0.00052347
0.000192039
-0.000172604
-0.000565734
-0.000988204
-0.00140613
-0.00180767
0.00120798
0.000997259
0.000735256
0.000437598
0.000123686
-0.000218763
-0.000586648
-0.000976751
-0.00136316
-0.00173672
0.0011001
0.000895534
0.000646187
0.000363749
6.5071e-05
-0.000257602
-0.000602899
-0.000964478
-0.00132292
-0.00167127
0.00100997
0.000811707
0.000574712
0.000306655
2.20328e-05
-0.000283254
-0.00060804
-0.000945568
-0.00128088
-0.001609
0.000931856
0.000737378
0.000510376
0.000255105
-1.6854e-05
-0.000306743
-0.000613034
-0.000929545
-0.00124446
-0.00155383
0.000869237
0.000680238
0.000463169
0.000219708
-4.06431e-05
-0.000317259
-0.000607877
-0.000907298
-0.00120634
-0.0015016
0.000813922
0.000626363
0.000416267
0.000183017
-6.63811e-05
-0.00033047
-0.000606444
-0.000890451
-0.00117509
-0.00145715
0.000774971
0.00059174
0.000388813
0.000164438
-7.59329e-05
-0.000330342
-0.000595543
-0.000868555
-0.00114332
-0.00141636
0.000738752
0.000555687
0.000356684
0.000140232
-9.07194e-05
-0.000334647
-0.000588431
-0.000850481
-0.00111635
-0.00138156
0.000730627
0.000549051
0.000351676
0.000138595
-8.83637e-05
-0.000328719
-0.000579195
-0.000838515
-0.00110195
-0.0013675
-0.00537174
-0.0057427
-0.00586579
-0.00597249
-0.00606486
-0.00656001
-0.00851344
-0.0111643
-0.0130226
-0.0137327
-0.0132554
-0.0119349
-0.0100375
-0.00792486
-0.00571177
-0.00351211
-0.00153294
0.000196614
0.00148019
0.00229863
0.00270044
0.00276183
0.00262176
0.00237557
0.00209516
0.00182302
0.00157828
0.00136759
0.00118587
0.00102661
0.000881549
0.000743735
0.000609666
0.000480214
0.000360002
0.0002551
0.000168561
0.000100952
5.03799e-05
1.26177e-05
-0.00551418
-0.00582989
-0.00596188
-0.00587317
-0.00620692
-0.00736644
-0.00960336
-0.0121808
-0.0138717
-0.0144235
-0.0137978
-0.01234
-0.0103505
-0.00819288
-0.0059759
-0.00375697
-0.00176846
-2.36578e-05
0.00129727
0.00213872
0.00257234
0.00266162
0.00254194
0.00231191
0.00204362
0.00178076
0.0015441
0.00133988
0.0011629
0.00100558
0.000861573
0.000724644
0.000592992
0.000467143
0.00035139
0.000250669
0.000167076
0.00010117
5.10244e-05
1.34095e-05
-0.00566062
-0.00593074
-0.00593316
-0.00621741
-0.00672251
-0.0084079
-0.010954
-0.013518
-0.015107
-0.0154997
-0.0146699
-0.0129804
-0.0108803
-0.00863431
-0.00640239
-0.00419364
-0.00218896
-0.000426126
0.00093436
0.00181705
0.00229005
0.00242365
0.0023426
0.00214825
0.00191082
0.00167306
0.00145664
0.00126779
0.00110182
0.000953542
0.000818015
0.000691824
0.000571484
0.000458249
0.000353611
0.000260423
0.000180418
0.000114587
6.15415e-05
1.83621e-05
-0.00521362
-0.00539618
-0.00530649
-0.00562151
-0.00697023
-0.00944205
-0.0122174
-0.0147407
-0.0162911
-0.0165498
-0.0155783
-0.0136694
-0.0114359
-0.00912816
-0.00689016
-0.00468433
-0.00265421
-0.000883791
0.000490098
0.0014013
0.00190596
0.00209001
0.00206126
0.00191826
0.00172806
0.0015292
0.00134281
0.00117695
0.00102902
0.00089399
0.000768909
0.000651702
0.000541149
0.000437506
0.000341765
0.000256017
0.000181247
0.000118046
6.5056e-05
2.02034e-05
-0.00549732
-0.00588008
-0.00531742
-0.00575579
-0.00705649
-0.00987007
-0.0127838
-0.0154705
-0.0171452
-0.0174696
-0.0163594
-0.0142817
-0.0119611
-0.00961177
-0.00736141
-0.00516632
-0.00313112
-0.00136253
1.22558e-05
0.00093822
0.00146101
0.00168885
0.00171811
0.00163592
0.00150313
0.0013534
0.00120507
0.00106639
0.000938482
0.000819289
0.000707242
0.000601787
0.000502997
0.000410339
0.000324918
0.000247208
0.000178821
0.000119851
6.8304e-05
2.27141e-05
-0.00449681
-0.0052593
-0.00433709
-0.0049937
-0.00680237
-0.00986098
-0.0129169
-0.0156862
-0.0174272
-0.0177566
-0.016638
-0.0145298
-0.0122148
-0.00992146
-0.00770289
-0.0055415
-0.00352232
-0.00179085
-0.000454218
0.000455799
0.00099317
0.00126708
0.001359
0.00134187
0.00126916
0.00117016
0.00106128
0.000951346
0.000844419
0.000742023
0.000644693
0.000552415
0.00046526
0.000383298
0.000305547
0.000235049
0.000172026
0.000116816
6.73351e-05
2.25719e-05
-0.00460357
-0.00550751
-0.00453764
-0.00473456
-0.00638609
-0.00945775
-0.0124953
-0.0152384
-0.016984
-0.017373
-0.0163247
-0.0143327
-0.012151
-0.00999003
-0.00785284
-0.00574407
-0.00378764
-0.00212505
-0.000843067
2.72547e-05
0.000553426
0.000856087
0.00100768
0.00105528
0.00104028
0.000988931
0.000916614
0.000833783
0.000747582
0.000662138
0.000579348
0.000499394
0.000423008
0.000350417
0.000282156
0.000218896
0.000160834
0.000109455
6.31125e-05
2.11264e-05
-0.00502353
-0.00397366
-0.00362378
-0.00413133
-0.00604747
-0.00884254
-0.0115973
-0.0141047
-0.015746
-0.0162011
-0.0154091
-0.0137175
-0.0117722
-0.00978135
-0.00776436
-0.00575638
-0.00390204
-0.0023596
-0.00117686
-0.000347995
0.000187701
0.000516075
0.000704674
0.000795792
0.000822395
0.000808184
0.000769114
0.000712723
0.000646449
0.000577477
0.000509845
0.000443686
0.000379226
0.000316713
0.000255527
0.000199802
0.000147411
0.000100611
5.7771e-05
1.86394e-05
-0.00385793
-0.00433157
-0.00461977
-0.0046587
-0.00580716
-0.00833256
-0.010781
-0.0129395
-0.0143856
-0.014849
-0.0142469
-0.0128369
-0.0111134
-0.00928577
-0.00740544
-0.00555324
-0.00387265
-0.00248469
-0.00142855
-0.000673812
-0.000148297
0.000209955
0.000438805
0.000568358
0.000623951
0.00063293
0.000615911
0.000581702
0.000535778
0.000484505
0.000432513
0.00038073
0.000329317
0.000278196
0.0002281
0.000178144
0.000132927
9.14777e-05
5.32164e-05
1.75053e-05
-0.00338729
-0.00392648
-0.00418821
-0.00468882
-0.00592016
-0.00797353
-0.00999728
-0.0117596
-0.0129546
-0.0133389
-0.0128477
-0.0116736
-0.0101413
-0.00849068
-0.00682435
-0.00521158
-0.00376685
-0.0025657
-0.00162357
-0.000920242
-0.00041582
-6.20051e-05
0.000176308
0.000328032
0.000414384
0.000454061
0.000462122
0.000448224
0.000420469
0.000386342
0.000349818
0.000311785
0.000272592
0.000232833
0.000192032
0.000151648
0.000112714
7.83548e-05
4.66602e-05
1.55454e-05
-0.00315919
-0.00369706
-0.00423198
-0.00492476
-0.00593533
-0.00741928
-0.00895975
-0.0102888
-0.0111866
-0.011503
-0.0111648
-0.0102282
-0.00897492
-0.00760788
-0.00622054
-0.00488503
-0.0036783
-0.00264857
-0.00180912
-0.00115272
-0.000659459
-0.000304659
-5.79304e-05
0.000105594
0.000206469
0.000266108
0.000299526
0.000311679
0.000306599
0.000291138
0.000269988
0.00024459
0.000216523
0.00018759
0.000157161
0.000125879
9.77319e-05
6.9073e-05
4.1408e-05
1.38304e-05
-0.00291973
-0.003484
-0.00405951
-0.00474626
-0.00559627
-0.00668678
-0.00785068
-0.00886868
-0.00958057
-0.00985166
-0.00962332
-0.00892185
-0.00792843
-0.00682265
-0.00570112
-0.00460659
-0.00359107
-0.00270027
-0.00194774
-0.00134362
-0.000885538
-0.00054294
-0.000287014
-0.000101375
2.50462e-05
0.00010601
0.00015754
0.00018747
0.000200452
0.000200985
0.000193238
0.000179492
0.000161895
0.000141963
0.000118494
9.54981e-05
7.29724e-05
5.22995e-05
3.26906e-05
1.00381e-05
-0.00275317
-0.00329679
-0.00386529
-0.00450726
-0.00524253
-0.00608627
-0.00698101
-0.00776234
-0.00829198
-0.00849924
-0.00833865
-0.00782133
-0.00705601
-0.0061717
-0.00525271
-0.0043448
-0.00348558
-0.00271578
-0.00205424
-0.00150275
-0.00106519
-0.000731144
-0.000476582
-0.00028311
-0.000140769
-4.05198e-05
2.8077e-05
7.35264e-05
0.000101918
0.000116627
0.000120677
0.000117176
0.000109644
0.000100058
8.82594e-05
7.39433e-05
5.7175e-05
4.10105e-05
2.64348e-05
8.74006e-06
-0.00260825
-0.00311555
-0.00365545
-0.00424228
-0.0048822
-0.00556539
-0.0062573
-0.00685349
-0.00726356
-0.00742819
-0.00731624
-0.00693422
-0.0063384
-0.00562201
-0.0048666
-0.00411175
-0.00338564
-0.00271821
-0.00213058
-0.00163183
-0.00122445
-0.000901723
-0.00064724
-0.000447851
-0.000296812
-0.000185664
-0.000104259
-4.57912e-05
-5.22434e-06
2.16366e-05
3.8654e-05
4.84696e-05
5.23733e-05
5.20795e-05
4.80314e-05
4.15056e-05
3.28527e-05
2.39702e-05
1.369e-05
4.63325e-06
-0.00248428
-0.00294997
-0.00345061
-0.00398014
-0.00453811
-0.00510889
-0.00565939
-0.00612859
-0.0064542
-0.00658637
-0.00650551
-0.0062095
-0.00573907
-0.00516111
-0.00453587
-0.00390242
-0.0032865
-0.00271177
-0.00219239
-0.00173714
-0.00135588
-0.001048
-0.000801252
-0.000602103
-0.000443684
-0.000321151
-0.000226598
-0.000153462
-9.7976e-05
-5.76525e-05
-2.89421e-05
-8.76414e-06
4.7725e-06
1.30495e-05
1.716e-05
1.83893e-05
1.68565e-05
1.23494e-05
7.93975e-06
2.89723e-06
-0.0023706
-0.00279637
-0.00325258
-0.00373091
-0.00422139
-0.00470391
-0.00515212
-0.00553012
-0.00579279
-0.00590134
-0.00584183
-0.00561316
-0.00524046
-0.00477013
-0.00425017
-0.00371876
-0.00319599
-0.00269432
-0.00223244
-0.00182356
-0.00147322
-0.0011811
-0.000939469
-0.000738871
-0.000573724
-0.000440932
-0.000336228
-0.000253504
-0.000187724
-0.000136123
-9.64646e-05
-6.64398e-05
-4.37157e-05
-2.69637e-05
-1.50095e-05
-7.54029e-06
-3.88676e-06
-1.67808e-06
-7.39209e-07
-1.68925e-07
-0.00226476
-0.00265505
-0.00307016
-0.00350141
-0.00393283
-0.00434765
-0.00472571
-0.00503804
-0.00525239
-0.00534334
-0.00529925
-0.00511983
-0.00482115
-0.00443876
-0.00400891
-0.00355814
-0.00310712
-0.00267317
-0.00226945
-0.00190219
-0.00157622
-0.00129706
-0.00106243
-0.000864294
-0.000697334
-0.000558875
-0.000445128
-0.000351768
-0.000275383
-0.000213258
-0.000163212
-0.00012332
-9.201e-05
-6.75708e-05
-4.808e-05
-3.29929e-05
-2.09101e-05
-1.2358e-05
-6.73749e-06
-1.86104e-06
-0.00216583
-0.00252591
-0.00290316
-0.00329152
-0.00367567
-0.004038
-0.00436069
-0.00462341
-0.00480193
-0.0048795
-0.00484832
-0.00470653
-0.00446697
-0.00415496
-0.00379709
-0.0034161
-0.00303097
-0.00265484
-0.00229681
-0.00196508
-0.00166545
-0.00140242
-0.00117601
-0.000980251
-0.000809901
-0.000664006
-0.000541325
-0.000438223
-0.000351605
-0.000279651
-0.0002202
-0.000171007
-0.000130311
-9.74685e-05
-7.14353e-05
-5.13638e-05
-3.6064e-05
-2.37917e-05
-1.35064e-05
-4.59897e-06
-0.00207417
-0.00240802
-0.00275207
-0.0031036
-0.00344849
-0.00376834
-0.00404812
-0.00427222
-0.00442534
-0.00449391
-0.00447168
-0.0043593
-0.00416648
-0.00391079
-0.00361356
-0.00329348
-0.00296443
-0.00263701
-0.00232115
-0.00202403
-0.00174976
-0.00150185
-0.00128191
-0.00108765
-0.000915776
-0.000765116
-0.0006352
-0.000524079
-0.000428988
-0.000347879
-0.00027937
-0.000222181
-0.000174616
-0.000135242
-0.000102273
-7.51383e-05
-5.23174e-05
-3.3946e-05
-1.88654e-05
-6.02526e-06
-0.00198962
-0.0023011
-0.00261766
-0.0029376
-0.00324863
-0.00353384
-0.00378001
-0.00397551
-0.00410768
-0.00416887
-0.00415501
-0.004066
-0.00390963
-0.00370088
-0.003455
-0.0031858
-0.00290568
-0.00262383
-0.00234671
-0.00208018
-0.00182831
-0.00159454
-0.00138155
-0.00118892
-0.00101498
-0.000859257
-0.000721415
-0.000600516
-0.000495506
-0.00040501
-0.000327069
-0.000260477
-0.000204266
-0.000157865
-0.000119844
-8.86644e-05
-6.31362e-05
-4.17286e-05
-2.34923e-05
-7.67824e-06
-0.00191233
-0.00220526
-0.00249865
-0.00279139
-0.00307362
-0.00333032
-0.0035492
-0.00372143
-0.00383878
-0.0038945
-0.00388582
-0.00381557
-0.00368991
-0.00351913
-0.00331645
-0.00309291
-0.00285696
-0.00261576
-0.0023745
-0.00213698
-0.00190636
-0.00168592
-0.0014789
-0.00128678
-0.00110975
-0.000948378
-0.000803221
-0.00067411
-0.000560487
-0.000461562
-0.000376021
-0.00030263
-0.000239914
-0.000186897
-0.000142181
-0.000105165
-7.442e-05
-4.90132e-05
-2.75411e-05
-8.99642e-06
-0.00184275
-0.00212022
-0.0023944
-0.00266466
-0.00292274
-0.00315545
-0.00335179
-0.00350545
-0.00360971
-0.00366061
-0.00365662
-0.00360065
-0.00349915
-0.00336109
-0.00319609
-0.00301271
-0.0028173
-0.00261445
-0.00240724
-0.00219746
-0.0019865
-0.00177754
-0.0015749
-0.00138203
-0.00120111
-0.00103366
-0.000880262
-0.000741651
-0.00061839
-0.000509785
-0.00041473
-0.000332856
-0.000263256
-0.000204691
-0.000155484
-0.000114619
-8.08405e-05
-5.29314e-05
-2.94717e-05
-9.45198e-06
-0.00178046
-0.00204567
-0.00230415
-0.00255537
-0.0027927
-0.00300569
-0.00318445
-0.00332156
-0.00341485
-0.00346096
-0.00345959
-0.00341473
-0.00333278
-0.00322195
-0.00309038
-0.00294402
-0.00278673
-0.00262092
-0.00244673
-0.00226354
-0.00207142
-0.00187321
-0.00167343
-0.00147731
-0.00128978
-0.00111424
-0.000952061
-0.000803939
-0.000670873
-0.000553302
-0.000450254
-0.000361245
-0.000285441
-0.000221576
-0.000167861
-0.000123199
-8.63111e-05
-5.60245e-05
-3.10261e-05
-9.97494e-06
-0.0017261
-0.00198185
-0.00222824
-0.00246406
-0.0026834
-0.00287787
-0.00304033
-0.00316472
-0.00324843
-0.00328945
-0.00328862
-0.0032515
-0.0031854
-0.00309765
-0.00299622
-0.00288581
-0.00276572
-0.00263526
-0.00249329
-0.0023362
-0.00216174
-0.00197234
-0.00177355
-0.00157255
-0.00137635
-0.00119032
-0.00101724
-0.000858945
-0.000715842
-0.000588526
-0.000477262
-0.000381217
-0.000299474
-0.000230641
-0.000173154
-0.000125587
-8.6772e-05
-5.5282e-05
-2.99335e-05
-9.14924e-06
-0.00167894
-0.00192848
-0.00216661
-0.00239126
-0.00259707
-0.00277702
-0.002924
-0.00303586
-0.00311016
-0.00314507
-0.00314288
-0.00311029
-0.0030557
-0.00298756
-0.00291362
-0.00283729
-0.00275505
-0.00266159
-0.00254996
-0.00241318
-0.00224899
-0.00206313
-0.00186343
-0.00165745
-0.00145298
-0.00125691
-0.00107314
-0.00090331
-0.000749781
-0.000613887
-0.000495537
-0.000393869
-0.000307553
-0.00023509
-0.000174833
-0.000125304
-8.52732e-05
-5.31126e-05
-2.80614e-05
-8.1055e-06
-0.00163919
-0.00188455
-0.00211638
-0.00233123
-0.00252557
-0.00269426
-0.00283175
-0.00293391
-0.00299923
-0.00302733
-0.00302159
-0.00299068
-0.00294426
-0.00289194
-0.00284186
-0.00279751
-0.00275536
-0.00270121
-0.0026188
-0.00249736
-0.00233459
-0.00214147
-0.0019305
-0.0017127
-0.00149712
-0.00129166
-0.00109995
-0.000923961
-0.000764719
-0.000623552
-0.000500941
-0.000396152
-0.000307463
-0.000233084
-0.000171432
-0.000120992
-8.07627e-05
-4.88916e-05
-2.49165e-05
-6.48871e-06
-0.00162713
-0.00187105
-0.00209854
-0.00230794
-0.00249608
-0.00265868
-0.00279026
-0.00288698
-0.00294725
-0.00297116
-0.0029631
-0.0029321
-0.00288769
-0.00283939
-0.002797
-0.00276402
-0.00273422
-0.00269282
-0.00262246
-0.00251108
-0.00235546
-0.00216539
-0.00195358
-0.00173296
-0.00151347
-0.00130398
-0.00110879
-0.000930148
-0.000768774
-0.000625976
-0.000501938
-0.000396174
-0.000306663
-0.000231867
-0.000169851
-0.000119488
-7.90722e-05
-4.74168e-05
-2.3672e-05
-5.58344e-06
)
;

boundaryField
{
    inlet
    {
        type            zeroGradient;
    }
    outlet
    {
        type            fixedValue;
        value           uniform 0;
    }
    lowerWall
    {
        type            zeroGradient;
    }
    upperWall
    {
        type            zeroGradient;
    }
    defaultFaces
    {
        type            empty;
    }
}


// ************************************************************************* //
