/*--------------------------------*- C++ -*----------------------------------*\
| =========                 |                                                 |
| \\      /  F ield         | OpenFOAM: The Open Source CFD Toolbox           |
|  \\    /   O peration     | Version:  2112                                  |
|   \\  /    A nd           | Website:  www.openfoam.com                      |
|    \\/     M anipulation  |                                                 |
\*---------------------------------------------------------------------------*/
FoamFile
{
    version     2.0;
    format      ascii;
    arch        "LSB;label=32;scalar=64";
    class       surfaceScalarField;
    location    "0.43";
    object      phi;
}
// * * * * * * * * * * * * * * * * * * * * * * * * * * * * * * * * * * * * * //

dimensions      [0 3 -1 0 0 0 0];

oriented        oriented;

internalField   nonuniform List<scalar> 
3653
(
9.92425e-07
7.57458e-09
9.79481e-07
1.29447e-08
9.63566e-07
1.59152e-08
9.48514e-07
1.50511e-08
9.31421e-07
1.70931e-08
9.14972e-07
1.64492e-08
8.96856e-07
1.81159e-08
8.7925e-07
1.7606e-08
8.60556e-07
1.86942e-08
8.42098e-07
1.84585e-08
8.23358e-07
1.87399e-08
8.03511e-07
1.98464e-08
7.84968e-07
1.8543e-08
7.62999e-07
2.19694e-08
7.43928e-07
1.90704e-08
7.20727e-07
2.3201e-08
6.98491e-07
2.22362e-08
6.7473e-07
2.37614e-08
6.48684e-07
2.60462e-08
6.21534e-07
2.71495e-08
5.92527e-07
2.90072e-08
5.58755e-07
3.37713e-08
5.23527e-07
3.5228e-08
4.84116e-07
3.94114e-08
4.38283e-07
4.58332e-08
3.87151e-07
5.1132e-08
3.29778e-07
5.7373e-08
2.62729e-07
6.7049e-08
1.92593e-07
7.01354e-08
7.02816e-08
1.22312e-07
1.00223e-06
5.34831e-09
1.00704e-06
8.12683e-09
1.00782e-06
1.5137e-08
1.011e-06
1.18758e-08
1.01008e-06
1.80143e-08
1.01182e-06
1.47012e-08
1.01111e-06
1.88335e-08
1.01056e-06
1.81569e-08
1.0094e-06
1.98482e-08
1.00789e-06
1.99692e-08
1.00391e-06
2.27173e-08
1.00312e-06
2.06431e-08
9.96216e-07
2.54436e-08
9.94578e-07
2.3608e-08
9.8667e-07
2.69787e-08
9.8207e-07
2.78008e-08
9.72301e-07
3.20047e-08
9.67346e-07
2.8717e-08
9.51969e-07
4.14234e-08
9.45999e-07
3.31191e-08
9.26962e-07
4.80443e-08
9.14567e-07
4.61664e-08
8.93556e-07
5.62393e-08
8.75118e-07
5.78489e-08
8.42958e-07
7.79933e-08
8.224e-07
7.16897e-08
7.77331e-07
1.02443e-07
7.43581e-07
1.00799e-07
6.85232e-07
1.28484e-07
1.29349e-07
6.26165e-07
1.0012e-06
4.14983e-09
1.0047e-06
4.62877e-09
1.00715e-06
1.2687e-08
1.00971e-06
9.30987e-09
1.0114e-06
1.63279e-08
1.01333e-06
1.27717e-08
1.01532e-06
1.68427e-08
1.01647e-06
1.70084e-08
1.01824e-06
1.80772e-08
1.01931e-06
1.88981e-08
1.01907e-06
2.29603e-08
1.02149e-06
1.82177e-08
1.01833e-06
2.86055e-08
1.02128e-06
2.06581e-08
1.01757e-06
3.06861e-08
1.01825e-06
2.7124e-08
1.01482e-06
3.54345e-08
1.01387e-06
2.96645e-08
1.0076e-06
4.76996e-08
1.00723e-06
3.34877e-08
9.98595e-07
5.66768e-08
9.9407e-07
5.06914e-08
9.86443e-07
6.38662e-08
9.7622e-07
6.8072e-08
9.655e-07
8.87135e-08
9.54164e-07
8.30253e-08
9.36611e-07
1.19995e-07
9.20851e-07
1.16559e-07
8.94483e-07
1.54853e-07
1.5356e-07
8.70271e-07
1.00054e-06
3.60666e-09
1.00236e-06
2.80878e-09
1.00443e-06
1.0616e-08
1.0064e-06
7.34865e-09
1.00817e-06
1.45565e-08
1.01016e-06
1.07832e-08
1.01107e-06
1.59327e-08
1.01378e-06
1.42953e-08
1.01355e-06
1.83054e-08
1.01677e-06
1.5681e-08
1.01597e-06
2.37578e-08
1.0185e-06
1.56876e-08
1.01789e-06
2.92171e-08
1.01922e-06
1.93304e-08
1.01858e-06
3.13187e-08
1.0192e-06
2.65074e-08
1.01812e-06
3.65118e-08
1.01722e-06
3.05668e-08
1.01656e-06
4.83624e-08
1.01352e-06
3.65266e-08
1.01228e-06
5.79204e-08
1.00941e-06
5.35608e-08
1.00509e-06
6.81778e-08
1.00174e-06
7.14249e-08
9.98066e-07
9.23888e-08
9.89788e-07
9.13029e-08
9.88387e-07
1.21397e-07
9.79468e-07
1.25478e-07
9.73972e-07
1.60349e-07
1.67742e-07
9.5979e-07
1.00072e-06
2.88756e-09
1.00146e-06
2.06539e-09
1.00332e-06
8.76224e-09
1.00489e-06
5.77566e-09
1.00655e-06
1.28944e-08
1.00833e-06
9.00134e-09
1.00941e-06
1.48608e-08
1.01154e-06
1.21565e-08
1.01207e-06
1.778e-08
1.01444e-06
1.33121e-08
1.01458e-06
2.36139e-08
1.01669e-06
1.35812e-08
1.01671e-06
2.91937e-08
1.01811e-06
1.79357e-08
1.01804e-06
3.13846e-08
1.01889e-06
2.56542e-08
1.01859e-06
3.68207e-08
1.01836e-06
3.07921e-08
1.01838e-06
4.83436e-08
1.01663e-06
3.82796e-08
1.01645e-06
5.80983e-08
1.01506e-06
5.49444e-08
1.01277e-06
7.04746e-08
1.01189e-06
7.23008e-08
1.00956e-06
9.47186e-08
1.00789e-06
9.29765e-08
1.00653e-06
1.22751e-07
1.0058e-06
1.26217e-07
1.00611e-06
1.60036e-07
1.67975e-07
1.00587e-06
1.00071e-06
2.17928e-09
1.00099e-06
1.77883e-09
1.00272e-06
7.03868e-09
1.00369e-06
4.80717e-09
1.00555e-06
1.10286e-08
1.00696e-06
7.59604e-09
1.00827e-06
1.35485e-08
1.01006e-06
1.03632e-08
1.01123e-06
1.66175e-08
1.01259e-06
1.19454e-08
1.01443e-06
2.17749e-08
1.01481e-06
1.32057e-08
1.01696e-06
2.7036e-08
1.01707e-06
1.78321e-08
1.01848e-06
2.99708e-08
1.01883e-06
2.53081e-08
1.01994e-06
3.57079e-08
1.01928e-06
3.14507e-08
1.02109e-06
4.65368e-08
1.01938e-06
3.99843e-08
1.02077e-06
5.67176e-08
1.02002e-06
5.56941e-08
1.02005e-06
7.04375e-08
1.01959e-06
7.27672e-08
1.0211e-06
9.32026e-08
1.01946e-06
9.46234e-08
1.02261e-06
1.19597e-07
1.02361e-06
1.25218e-07
1.02813e-06
1.55512e-07
1.65095e-07
1.03101e-06
1.00062e-06
1.55877e-09
1.00089e-06
1.51232e-09
1.00218e-06
5.74419e-09
1.00316e-06
3.82839e-09
1.00476e-06
9.4253e-09
1.00614e-06
6.22293e-09
1.00759e-06
1.21002e-08
1.00922e-06
8.72611e-09
1.01063e-06
1.52121e-08
1.01203e-06
1.05444e-08
1.01396e-06
1.98446e-08
1.01461e-06
1.25498e-08
1.01702e-06
2.4635e-08
1.01736e-06
1.74903e-08
1.01924e-06
2.80916e-08
1.02004e-06
2.45004e-08
1.0214e-06
3.43566e-08
1.02186e-06
3.09903e-08
1.02373e-06
4.46631e-08
1.02348e-06
4.02384e-08
1.02518e-06
5.50097e-08
1.02593e-06
5.49481e-08
1.02688e-06
6.94859e-08
1.02833e-06
7.13157e-08
1.03033e-06
9.12053e-08
1.03208e-06
9.28748e-08
1.03581e-06
1.15867e-07
1.03955e-06
1.21475e-07
1.04633e-06
1.48736e-07
1.57773e-07
1.05365e-06
1.00056e-06
1.00125e-09
1.00068e-06
1.39224e-09
1.00201e-06
4.41329e-09
1.00266e-06
3.17574e-09
1.00448e-06
7.61042e-09
1.00554e-06
5.16138e-09
1.0074e-06
1.02388e-08
1.00866e-06
7.46694e-09
1.01072e-06
1.31485e-08
1.01165e-06
9.61926e-09
1.01434e-06
1.71554e-08
1.01474e-06
1.21479e-08
1.01769e-06
2.16875e-08
1.01822e-06
1.69565e-08
1.02063e-06
2.56843e-08
1.0216e-06
2.35291e-08
1.02387e-06
3.20816e-08
1.02455e-06
3.03099e-08
1.02735e-06
4.18705e-08
1.02782e-06
3.97669e-08
1.03057e-06
5.22562e-08
1.03198e-06
5.35407e-08
1.03476e-06
6.67064e-08
1.0366e-06
6.94686e-08
1.04103e-06
8.67818e-08
1.04357e-06
9.03288e-08
1.04949e-06
1.09948e-07
1.05448e-06
1.16488e-07
1.06353e-06
1.39692e-07
1.49886e-07
1.07141e-06
1.00038e-06
6.19811e-10
1.00071e-06
1.06773e-09
1.00178e-06
3.33586e-09
1.00258e-06
2.38153e-09
1.00428e-06
5.90809e-09
1.00536e-06
4.08202e-09
1.00737e-06
8.23019e-09
1.0086e-06
6.23396e-09
1.01087e-06
1.08752e-08
1.01197e-06
8.52695e-09
1.01473e-06
1.43962e-08
1.01555e-06
1.13237e-08
1.01857e-06
1.86711e-08
1.01961e-06
1.5917e-08
1.02226e-06
2.3028e-08
1.02379e-06
2.19999e-08
1.02642e-06
2.94557e-08
1.02786e-06
2.88654e-08
1.03109e-06
3.86405e-08
1.03254e-06
3.83191e-08
1.03587e-06
4.89233e-08
1.03839e-06
5.10269e-08
1.04203e-06
6.30644e-08
1.04529e-06
6.62058e-08
1.05049e-06
8.15792e-08
1.05483e-06
8.59914e-08
1.06186e-06
1.02924e-07
1.06848e-06
1.09865e-07
1.07854e-06
1.29633e-07
1.39486e-07
1.08894e-06
1.00036e-06
2.61593e-10
1.00065e-06
7.77687e-10
1.00177e-06
2.21407e-09
1.00251e-06
1.63688e-09
1.00429e-06
4.13708e-09
1.00538e-06
2.99177e-09
1.00754e-06
6.06716e-09
1.00881e-06
4.95879e-09
1.01132e-06
8.36943e-09
1.01254e-06
7.30193e-09
1.01547e-06
1.14667e-08
1.01666e-06
1.01345e-08
1.01979e-06
1.55409e-08
1.0213e-06
1.44124e-08
1.02429e-06
2.00386e-08
1.02618e-06
2.01074e-08
1.02938e-06
2.62514e-08
1.03135e-06
2.69004e-08
1.03513e-06
3.48616e-08
1.03736e-06
3.60859e-08
1.04146e-06
4.48294e-08
1.04467e-06
4.78097e-08
1.0495e-06
5.82361e-08
1.05349e-06
6.22174e-08
1.05993e-06
7.51383e-08
1.06539e-06
8.05279e-08
1.07357e-06
9.47437e-08
1.08126e-06
1.02184e-07
1.09246e-06
1.18432e-07
1.28424e-07
1.10352e-06
1.00025e-06
8.17768e-12
1.00069e-06
3.42844e-10
1.00175e-06
1.15056e-09
1.00264e-06
7.4588e-10
1.00443e-06
2.35246e-09
1.00566e-06
1.76408e-09
1.00789e-06
3.82862e-09
1.00937e-06
3.48106e-09
1.01192e-06
5.82304e-09
1.01352e-06
5.69585e-09
1.0164e-06
8.594e-09
1.01813e-06
8.39942e-09
1.02126e-06
1.24106e-08
1.0233e-06
1.23748e-08
1.0265e-06
1.68386e-08
1.02891e-06
1.76967e-08
1.03245e-06
2.27159e-08
1.03508e-06
2.42672e-08
1.03921e-06
3.07279e-08
1.04231e-06
3.29898e-08
1.04688e-06
4.02619e-08
1.05098e-06
4.37094e-08
1.05648e-06
5.27321e-08
1.06152e-06
5.71798e-08
1.06865e-06
6.80069e-08
1.07525e-06
7.39303e-08
1.08416e-06
8.58336e-08
1.09302e-06
9.3325e-08
1.10466e-06
1.06791e-07
1.16109e-07
1.11697e-06
1.00025e-06
-2.44464e-10
1.00073e-06
-1.38219e-10
1.00187e-06
1.91913e-11
1.00288e-06
-2.67578e-10
1.0047e-06
5.26476e-10
1.00614e-06
3.30257e-10
1.00842e-06
1.5499e-09
1.01015e-06
1.74861e-09
1.01275e-06
3.21868e-09
1.0147e-06
3.75383e-09
1.0176e-06
5.69124e-09
1.01979e-06
6.20619e-09
1.023e-06
9.20269e-09
1.0255e-06
9.87484e-09
1.02895e-06
1.33899e-08
1.0318e-06
1.48469e-08
1.03569e-06
1.88254e-08
1.03891e-06
2.10437e-08
1.0434e-06
2.62356e-08
1.04724e-06
2.91555e-08
1.05232e-06
3.51851e-08
1.0571e-06
3.89251e-08
1.0633e-06
4.65283e-08
1.06916e-06
5.13281e-08
1.0769e-06
6.02576e-08
1.08443e-06
6.64094e-08
1.09395e-06
7.6313e-08
1.10363e-06
8.36438e-08
1.11575e-06
9.46639e-08
1.03379e-07
1.12848e-06
1.00024e-06
-4.89339e-10
1.00087e-06
-7.60545e-10
1.00207e-06
-1.18221e-09
1.00331e-06
-1.51058e-09
1.00522e-06
-1.38301e-09
1.0069e-06
-1.34716e-09
1.00923e-06
-7.77899e-10
1.01124e-06
-2.65446e-10
1.01385e-06
6.07606e-10
1.01618e-06
1.4294e-09
1.0191e-06
2.76955e-09
1.02171e-06
3.58937e-09
1.02503e-06
5.88607e-09
1.02794e-06
6.96433e-09
1.0316e-06
9.73032e-09
1.03492e-06
1.153e-08
1.03906e-06
1.46858e-08
1.04288e-06
1.72228e-08
1.04765e-06
2.14598e-08
1.05219e-06
2.46225e-08
1.05766e-06
2.97099e-08
1.06311e-06
3.34779e-08
1.06978e-06
3.98535e-08
1.07642e-06
4.469e-08
1.08463e-06
5.20464e-08
1.09293e-06
5.81173e-08
1.10286e-06
6.63798e-08
1.11326e-06
7.32473e-08
1.12559e-06
8.23291e-08
9.00641e-08
1.13891e-06
1.00026e-06
-7.46409e-10
1.00101e-06
-1.50947e-09
1.00234e-06
-2.51148e-09
1.00383e-06
-3.00171e-09
1.00584e-06
-3.3973e-09
1.00778e-06
-3.28661e-09
1.01018e-06
-3.18237e-09
1.01249e-06
-2.57279e-09
1.0152e-06
-2.10194e-09
1.01783e-06
-1.20373e-09
1.0209e-06
-2.91302e-10
1.02387e-06
6.18743e-10
1.02735e-06
2.39726e-09
1.03063e-06
3.69028e-09
1.03451e-06
5.8451e-09
1.03825e-06
7.79328e-09
1.04265e-06
1.0284e-08
1.04699e-06
1.28888e-08
1.05205e-06
1.63919e-08
1.05716e-06
1.95189e-08
1.06304e-06
2.38286e-08
1.06902e-06
2.74947e-08
1.07614e-06
3.2741e-08
1.08341e-06
3.74151e-08
1.09197e-06
4.34899e-08
1.10087e-06
4.92174e-08
1.11114e-06
5.611e-08
1.12207e-06
6.23162e-08
1.13467e-06
6.97306e-08
7.6749e-08
1.14798e-06
1.00037e-06
-1.1207e-09
1.00138e-06
-2.51971e-09
1.00298e-06
-4.10538e-09
1.0048e-06
-4.82683e-09
1.00698e-06
-5.57865e-09
1.0092e-06
-5.49701e-09
1.0117e-06
-5.68302e-09
1.01425e-06
-5.12667e-09
1.01706e-06
-4.91466e-09
1.01998e-06
-4.12105e-09
1.02315e-06
-3.46585e-09
1.02639e-06
-2.61974e-09
1.03005e-06
-1.26484e-09
1.03361e-06
1.31589e-10
1.03769e-06
1.76819e-09
1.04182e-06
3.66044e-09
1.04644e-06
5.66675e-09
1.05122e-06
8.11389e-09
1.05656e-06
1.10459e-08
1.06214e-06
1.39404e-08
1.06836e-06
1.76077e-08
1.07482e-06
2.10375e-08
1.08226e-06
2.52952e-08
1.09007e-06
2.96057e-08
1.09893e-06
3.46369e-08
1.10832e-06
3.98279e-08
1.11884e-06
4.55827e-08
1.13007e-06
5.10897e-08
1.14267e-06
5.71329e-08
6.29602e-08
1.15646e-06
1.00044e-06
-1.56162e-09
1.00182e-06
-3.90059e-09
1.00381e-06
-6.08864e-09
1.00603e-06
-7.04764e-09
1.00842e-06
-7.96787e-09
1.01088e-06
-7.96084e-09
1.01352e-06
-8.32752e-09
1.01632e-06
-7.91912e-09
1.01931e-06
-7.90777e-09
1.0225e-06
-7.3115e-09
1.02589e-06
-6.85568e-09
1.0294e-06
-6.12705e-09
1.03324e-06
-5.10715e-09
1.03713e-06
-3.76359e-09
1.04142e-06
-2.51654e-09
1.04592e-06
-8.39228e-10
1.05079e-06
7.97658e-10
1.05591e-06
2.99494e-09
1.06151e-06
5.44284e-09
1.06746e-06
7.98739e-09
1.07403e-06
1.10424e-08
1.08092e-06
1.41494e-08
1.08867e-06
1.75412e-08
1.09686e-06
2.14142e-08
1.10589e-06
2.56048e-08
1.11558e-06
3.0143e-08
1.12635e-06
3.48156e-08
1.13794e-06
3.94933e-08
1.15066e-06
4.44113e-08
4.95423e-08
1.16408e-06
1.00086e-06
-2.42564e-09
1.00288e-06
-5.91188e-09
1.00531e-06
-8.52238e-09
1.00788e-06
-9.61392e-09
1.01045e-06
-1.05376e-08
1.01314e-06
-1.06573e-08
1.01598e-06
-1.11697e-08
1.01902e-06
-1.09599e-08
1.02224e-06
-1.11231e-08
1.02568e-06
-1.07561e-08
1.02925e-06
-1.04213e-08
1.03297e-06
-9.84504e-09
1.03694e-06
-9.07728e-09
1.04105e-06
-7.87319e-09
1.04552e-06
-6.98599e-09
1.05026e-06
-5.58689e-09
1.05529e-06
-4.22794e-09
1.06068e-06
-2.39642e-09
1.06649e-06
-3.61464e-10
1.07272e-06
1.75285e-09
1.07953e-06
4.23324e-09
1.08677e-06
6.90937e-09
1.09475e-06
9.55991e-09
1.10324e-06
1.29206e-08
1.11245e-06
1.64033e-08
1.12237e-06
2.02206e-08
1.13324e-06
2.39417e-08
1.14494e-06
2.7792e-08
1.15779e-06
3.15638e-08
3.55919e-08
1.17174e-06
1.0018e-06
-4.22568e-09
1.00524e-06
-9.35037e-09
1.00849e-06
-1.17715e-08
1.01145e-06
-1.25743e-08
1.01421e-06
-1.32997e-08
1.01722e-06
-1.36692e-08
1.02031e-06
-1.42588e-08
1.02356e-06
-1.42052e-08
1.02684e-06
-1.44022e-08
1.03026e-06
-1.4176e-08
1.03371e-06
-1.38744e-08
1.03728e-06
-1.34176e-08
1.04101e-06
-1.28091e-08
1.04499e-06
-1.18481e-08
1.04928e-06
-1.1281e-08
1.05389e-06
-1.01904e-08
1.0587e-06
-9.04045e-09
1.06385e-06
-7.54898e-09
1.06952e-06
-6.03209e-09
1.07561e-06
-4.33535e-09
1.08232e-06
-2.47844e-09
1.08957e-06
-3.34059e-10
1.09738e-06
1.74299e-09
1.10575e-06
4.55677e-09
1.11486e-06
7.29059e-09
1.12483e-06
1.02458e-08
1.13586e-06
1.29184e-08
1.14776e-06
1.58865e-08
1.1606e-06
1.87298e-08
2.19977e-08
1.17419e-06
1.003e-06
-7.2273e-09
1.00684e-06
-1.31894e-08
1.00969e-06
-1.46254e-08
1.01186e-06
-1.47363e-08
1.01371e-06
-1.51499e-08
1.01555e-06
-1.55075e-08
1.01703e-06
-1.57422e-08
1.01843e-06
-1.5607e-08
1.01961e-06
-1.558e-08
1.02063e-06
-1.51979e-08
1.02149e-06
-1.47371e-08
1.02237e-06
-1.42941e-08
1.02336e-06
-1.38033e-08
1.02462e-06
-1.31076e-08
1.02591e-06
-1.25667e-08
1.02741e-06
-1.16967e-08
1.02924e-06
-1.08699e-08
1.03164e-06
-9.94221e-09
1.03453e-06
-8.92797e-09
1.03781e-06
-7.61089e-09
1.04166e-06
-6.33117e-09
1.04633e-06
-5.0029e-09
1.05187e-06
-3.80007e-09
1.0585e-06
-2.07372e-09
1.06604e-06
-2.486e-10
1.07463e-06
1.66095e-09
1.08418e-06
3.36208e-09
1.095e-06
5.067e-09
1.10718e-06
6.54892e-09
8.10978e-09
1.12107e-06
9.92773e-07
9.79583e-07
9.64958e-07
9.50222e-07
9.35072e-07
9.19564e-07
9.03822e-07
8.88215e-07
8.72635e-07
8.57437e-07
8.427e-07
8.28406e-07
8.14603e-07
8.01495e-07
7.88928e-07
7.77232e-07
7.66362e-07
7.5642e-07
7.47492e-07
7.39881e-07
7.3355e-07
7.28547e-07
7.24747e-07
7.22673e-07
7.22424e-07
7.24085e-07
7.27447e-07
7.32514e-07
7.39063e-07
7.47173e-07
2.41267e-07
-1.18955e-07
3.34568e-07
-9.33012e-08
4.24982e-07
-9.04141e-08
4.90286e-07
-6.53035e-08
5.46703e-07
-5.64169e-08
5.96892e-07
-5.0189e-08
6.45773e-07
-4.88808e-08
6.99346e-07
-5.35736e-08
7.61416e-07
-6.207e-08
-1.25789e-07
8.87205e-07
6.79898e-07
-1.72689e-07
7.32608e-07
-1.46011e-07
7.78123e-07
-1.3593e-07
8.16577e-07
-1.03757e-07
8.42999e-07
-8.2839e-08
8.72413e-07
-7.96034e-08
9.23742e-07
-1.00209e-07
9.50775e-07
-8.06069e-08
1.00183e-06
-1.13128e-07
-1.53748e-07
1.02979e-06
8.81629e-07
-1.84046e-07
8.94088e-07
-1.5847e-07
8.9645e-07
-1.38291e-07
9.23963e-07
-1.3127e-07
9.33982e-07
-9.2858e-08
9.5443e-07
-1.00052e-07
9.68611e-07
-1.1439e-07
1.01617e-06
-1.28167e-07
1.02415e-06
-1.2111e-07
-1.79999e-07
1.05041e-06
9.57855e-07
-1.82112e-07
9.60915e-07
-1.6153e-07
9.60531e-07
-1.37907e-07
9.67685e-07
-1.38425e-07
9.85555e-07
-1.10728e-07
9.95464e-07
-1.09961e-07
1.00122e-06
-1.20148e-07
1.02226e-06
-1.49203e-07
1.04281e-06
-1.41663e-07
-1.84845e-07
1.04766e-06
9.95315e-07
-1.71553e-07
9.97245e-07
-1.63459e-07
9.93699e-07
-1.34361e-07
9.9571e-07
-1.40435e-07
1.002e-06
-1.17015e-07
1.01583e-06
-1.23795e-07
1.01714e-06
-1.21455e-07
1.02742e-06
-1.5949e-07
1.03881e-06
-1.5305e-07
-1.93453e-07
1.04742e-06
1.02418e-06
-1.64718e-07
1.01813e-06
-1.57415e-07
1.01674e-06
-1.32968e-07
1.01648e-06
-1.40178e-07
1.02309e-06
-1.23618e-07
1.03016e-06
-1.30864e-07
1.03427e-06
-1.25573e-07
1.03647e-06
-1.61682e-07
1.04372e-06
-1.60299e-07
-1.9271e-07
1.04297e-06
1.04408e-06
-1.55152e-07
1.03951e-06
-1.52843e-07
1.03786e-06
-1.31314e-07
1.03592e-06
-1.38243e-07
1.03574e-06
-1.23435e-07
1.03931e-06
-1.34433e-07
1.04162e-06
-1.27886e-07
1.04075e-06
-1.60817e-07
1.04336e-06
-1.629e-07
-1.91151e-07
1.0418e-06
1.06411e-06
-1.47852e-07
1.05681e-06
-1.45537e-07
1.05364e-06
-1.28146e-07
1.04987e-06
-1.34471e-07
1.04967e-06
-1.23238e-07
1.0494e-06
-1.3416e-07
1.05086e-06
-1.29346e-07
1.04641e-06
-1.5637e-07
1.04373e-06
-1.60217e-07
-1.86254e-07
1.03883e-06
1.08017e-06
-1.39083e-07
1.07259e-06
-1.37961e-07
1.0681e-06
-1.23657e-07
1.06318e-06
-1.29546e-07
1.05994e-06
-1.20005e-07
1.05685e-06
-1.31061e-07
1.05497e-06
-1.27473e-07
1.0487e-06
-1.50093e-07
1.04398e-06
-1.55505e-07
-1.80148e-07
1.03788e-06
1.09474e-06
-1.30305e-07
1.0861e-06
-1.29325e-07
1.08007e-06
-1.17628e-07
1.07333e-06
-1.22801e-07
1.069e-06
-1.15679e-07
1.06342e-06
-1.25479e-07
1.05919e-06
-1.23246e-07
1.05136e-06
-1.42262e-07
1.04432e-06
-1.48458e-07
-1.70574e-07
1.03474e-06
1.10727e-06
-1.20605e-07
1.09781e-06
-1.19859e-07
1.09056e-06
-1.10378e-07
1.08263e-06
-1.14876e-07
1.07611e-06
-1.09162e-07
1.06856e-06
-1.17923e-07
1.06236e-06
-1.17049e-07
1.05289e-06
-1.32792e-07
1.04324e-06
-1.38809e-07
-1.59187e-07
1.03186e-06
1.11818e-06
-1.10303e-07
1.10786e-06
-1.09539e-07
1.09934e-06
-1.01854e-07
1.08997e-06
-1.0551e-07
1.08215e-06
-1.01333e-07
1.07288e-06
-1.08658e-07
1.06446e-06
-1.0863e-07
1.05363e-06
-1.21959e-07
1.04273e-06
-1.27915e-07
-1.45952e-07
1.0295e-06
1.12781e-06
-9.92059e-08
1.11673e-06
-9.84628e-08
1.1071e-06
-9.22209e-08
1.09663e-06
-9.50386e-08
1.08721e-06
-9.1914e-08
1.07661e-06
-9.80598e-08
1.06656e-06
-9.85761e-08
1.0543e-06
-1.09707e-07
1.04164e-06
-1.15246e-07
-1.31067e-07
1.02675e-06
1.13622e-06
-8.74468e-08
1.12434e-06
-8.65813e-08
1.11364e-06
-8.15192e-08
1.10217e-06
-8.35664e-08
1.09148e-06
-8.12326e-08
1.07958e-06
-8.61574e-08
1.06803e-06
-8.70226e-08
1.0547e-06
-9.63773e-08
1.04088e-06
-1.01431e-07
-1.14954e-07
1.02477e-06
1.14396e-06
-7.49474e-08
1.13141e-06
-7.40386e-08
1.11981e-06
-6.99167e-08
1.10744e-06
-7.11937e-08
1.0956e-06
-6.93905e-08
1.0827e-06
-7.32565e-08
1.06988e-06
-7.42073e-08
1.05532e-06
-8.18144e-08
1.04026e-06
-8.63754e-08
-9.76892e-08
1.023e-06
1.15101e-06
-6.18808e-08
1.1377e-06
-6.07285e-08
1.12516e-06
-5.73711e-08
1.11191e-06
-5.79494e-08
1.09907e-06
-5.65495e-08
1.08519e-06
-5.93777e-08
1.07136e-06
-6.0373e-08
1.05594e-06
-6.63953e-08
1.03997e-06
-7.04017e-08
-7.95566e-08
1.02183e-06
1.15783e-06
-4.79671e-08
1.14374e-06
-4.66413e-08
1.13032e-06
-4.39484e-08
1.11615e-06
-4.37821e-08
1.10226e-06
-4.26591e-08
1.08731e-06
-4.44261e-08
1.07231e-06
-4.53692e-08
1.05568e-06
-4.9772e-08
1.03853e-06
-5.32474e-08
-6.02174e-08
1.01919e-06
1.15864e-06
-3.24199e-08
1.14285e-06
-3.08439e-08
1.12771e-06
-2.88096e-08
1.11199e-06
-2.80624e-08
1.09661e-06
-2.72839e-08
1.08028e-06
-2.80949e-08
1.06389e-06
-2.89829e-08
1.04592e-06
-3.18013e-08
1.0273e-06
-3.46201e-08
-3.9333e-08
1.00641e-06
1.10262e-06
-1.39625e-08
1.08481e-06
-1.30422e-08
1.06784e-06
-1.18369e-08
1.05076e-06
-1.09781e-08
1.03389e-06
-1.04142e-08
1.01639e-06
-1.05972e-08
9.98626e-07
-1.12197e-08
9.79474e-07
-1.26498e-08
9.59349e-07
-1.44946e-08
-1.69431e-08
9.36959e-07
7.33211e-07
7.20168e-07
7.08331e-07
6.97353e-07
6.86939e-07
6.76342e-07
6.65122e-07
6.52472e-07
6.37978e-07
6.21035e-07
1.19708e-07
-1.19708e-07
1.31041e-07
-1.13326e-08
1.12333e-07
1.87082e-08
9.00777e-08
2.2255e-08
-9.21517e-08
1.82229e-07
-3.9456e-07
3.02408e-07
-6.54702e-07
2.60143e-07
-8.33106e-07
1.78404e-07
-9.31297e-07
9.81902e-08
-9.62983e-07
3.16861e-08
-9.40119e-07
-2.28637e-08
-8.82746e-07
-5.73735e-08
-8.00191e-07
-8.25548e-08
-7.02853e-07
-9.73382e-08
-5.90752e-07
-1.121e-07
-4.69951e-07
-1.20802e-07
-3.36208e-07
-1.33743e-07
-1.93187e-07
-1.43021e-07
-5.77581e-08
-1.35429e-07
7.06065e-08
-1.28365e-07
1.80987e-07
-1.1038e-07
2.70471e-07
-8.94838e-08
3.37993e-07
-6.75226e-08
3.85956e-07
-4.79623e-08
4.17979e-07
-3.20234e-08
4.38182e-07
-2.02033e-08
4.49568e-07
-1.13861e-08
4.54108e-07
-4.53938e-09
4.52284e-07
1.82403e-09
4.44364e-07
7.91942e-09
4.30406e-07
1.39582e-08
4.11828e-07
1.85784e-08
3.90448e-07
2.13794e-08
3.68928e-07
2.15207e-08
3.48943e-07
1.99848e-08
3.32218e-07
1.67245e-08
3.18576e-07
1.36419e-08
3.08556e-07
1.002e-08
3.00616e-07
7.94078e-09
5.25817e-09
8.95224e-08
-2.09231e-07
1.41066e-07
-6.28767e-08
8.97384e-08
7.00363e-08
-1.27821e-07
2.39814e-07
-3.99002e-07
4.53411e-07
-6.14905e-07
5.1831e-07
-7.73504e-07
4.18742e-07
-8.81299e-07
2.86199e-07
-9.32745e-07
1.49636e-07
-9.32429e-07
3.13699e-08
-8.87091e-07
-6.82011e-08
-8.12789e-07
-1.31675e-07
-7.19526e-07
-1.75819e-07
-6.16421e-07
-2.00443e-07
-4.99981e-07
-2.28541e-07
-3.7419e-07
-2.46592e-07
-2.38532e-07
-2.69401e-07
-9.91677e-08
-2.82385e-07
3.91187e-08
-2.73715e-07
1.69046e-07
-2.58292e-07
2.8356e-07
-2.24894e-07
3.79768e-07
-1.85692e-07
4.56806e-07
-1.44561e-07
5.15999e-07
-1.07155e-07
5.60227e-07
-7.62517e-08
5.93689e-07
-5.36652e-08
6.19339e-07
-3.7036e-08
6.39505e-07
-2.47052e-08
6.55358e-07
-1.40293e-08
6.6806e-07
-4.78269e-09
6.77453e-07
4.56562e-09
6.83313e-07
1.27183e-08
6.84726e-07
1.99659e-08
6.81825e-07
2.44218e-08
6.75196e-07
2.66136e-08
6.66728e-07
2.51926e-08
6.57619e-07
2.27512e-08
6.49708e-07
1.79307e-08
6.42555e-07
1.50944e-08
1.02832e-08
5.13961e-09
-2.1437e-07
-6.24424e-08
4.70526e-09
-1.33728e-07
1.41322e-07
-2.84608e-07
3.90694e-07
-4.26636e-07
5.95439e-07
-5.42371e-07
6.34045e-07
-6.33162e-07
5.09532e-07
-6.96043e-07
3.49081e-07
-7.22824e-07
1.76416e-07
-7.07648e-07
1.6194e-08
-6.55472e-07
-1.20377e-07
-5.79503e-07
-2.07644e-07
-4.88604e-07
-2.66717e-07
-3.91939e-07
-2.97108e-07
-2.89589e-07
-3.3089e-07
-1.75581e-07
-3.60601e-07
-5.76477e-08
-3.87334e-07
5.95704e-08
-3.99603e-07
1.76178e-07
-3.90323e-07
2.82547e-07
-3.6466e-07
3.76083e-07
-3.18431e-07
4.53761e-07
-2.6337e-07
5.16609e-07
-2.07408e-07
5.65827e-07
-1.56373e-07
6.02759e-07
-1.13184e-07
6.30992e-07
-8.1898e-08
6.54036e-07
-6.00807e-08
6.7377e-07
-4.44385e-08
6.90437e-07
-3.06971e-08
7.04833e-07
-1.91781e-08
7.18298e-07
-8.89948e-09
7.31579e-07
-5.63233e-10
7.44194e-07
7.35177e-09
7.54512e-07
1.41036e-08
7.6119e-07
1.9935e-08
7.63793e-07
2.25901e-08
7.6262e-07
2.39243e-08
7.59729e-07
2.08217e-08
7.55303e-07
1.95201e-08
1.35051e-08
-3.61673e-09
-2.10754e-07
-7.71814e-08
7.82699e-08
-1.41306e-07
2.05447e-07
-2.60826e-07
5.10214e-07
-3.50086e-07
6.847e-07
-3.97839e-07
6.81797e-07
-4.33923e-07
5.45616e-07
-4.67421e-07
3.82579e-07
-4.82011e-07
1.91006e-07
-4.65068e-07
-7.48598e-10
-4.14367e-07
-1.71078e-07
-3.39718e-07
-2.82293e-07
-2.56649e-07
-3.49786e-07
-1.65731e-07
-3.88026e-07
-6.87233e-08
-4.27899e-07
3.40215e-08
-4.63346e-07
1.38763e-07
-4.92075e-07
2.41313e-07
-5.02154e-07
3.34733e-07
-4.83743e-07
4.1401e-07
-4.43937e-07
4.82454e-07
-3.86874e-07
5.37258e-07
-3.18174e-07
5.79533e-07
-2.49683e-07
6.1343e-07
-1.90269e-07
6.39846e-07
-1.396e-07
6.59244e-07
-1.01296e-07
6.74975e-07
-7.58119e-08
6.9044e-07
-5.99031e-08
7.05645e-07
-4.59022e-08
7.18516e-07
-3.20495e-08
7.2836e-07
-1.87427e-08
7.36606e-07
-8.80984e-09
7.45544e-07
-1.58576e-09
7.55784e-07
3.86314e-09
7.66206e-07
9.51278e-09
7.75541e-07
1.32555e-08
7.81595e-07
1.787e-08
7.85088e-07
1.7329e-08
7.85311e-07
1.92974e-08
1.4957e-08
-2.5872e-08
-1.84882e-07
-1.45028e-07
1.97426e-07
-1.55522e-07
2.1594e-07
-1.51994e-07
5.06685e-07
-1.4229e-07
6.74996e-07
-1.39733e-07
6.79241e-07
-1.57916e-07
5.63799e-07
-1.78494e-07
4.03157e-07
-1.82455e-07
1.94967e-07
-1.64906e-07
-1.82977e-08
-1.21377e-07
-2.14607e-07
-6.10534e-08
-3.42617e-07
5.72831e-09
-4.16568e-07
7.8924e-08
-4.61221e-07
1.58088e-07
-5.07063e-07
2.45677e-07
-5.50935e-07
3.34262e-07
-5.8066e-07
4.18484e-07
-5.86376e-07
4.90735e-07
-5.55994e-07
5.40094e-07
-4.93297e-07
5.76256e-07
-4.23036e-07
6.06504e-07
-3.48422e-07
6.28338e-07
-2.71518e-07
6.44725e-07
-2.06656e-07
6.6022e-07
-1.55096e-07
6.73348e-07
-1.14423e-07
6.82586e-07
-8.50497e-08
6.91235e-07
-6.8552e-08
7.02861e-07
-5.75283e-08
7.16455e-07
-4.56438e-08
7.27925e-07
-3.02124e-08
7.34614e-07
-1.54985e-08
7.37697e-07
-4.66878e-09
7.40428e-07
1.13187e-09
7.45108e-07
4.83255e-09
7.52102e-07
6.26176e-09
7.60501e-07
9.47082e-09
7.68268e-07
9.56221e-09
7.7559e-07
1.19751e-08
1.07007e-08
-1.24159e-07
-6.07229e-08
-1.21366e-07
1.94633e-07
-3.8956e-08
1.33531e-07
-1.26689e-08
4.80398e-07
2.54386e-08
6.36889e-07
7.11711e-08
6.33509e-07
9.86848e-08
5.36285e-07
1.17512e-07
3.8433e-07
1.36999e-07
1.7548e-07
1.66818e-07
-4.81166e-08
2.03019e-07
-2.50807e-07
2.40462e-07
-3.8006e-07
2.80012e-07
-4.56118e-07
3.28777e-07
-5.09986e-07
3.8718e-07
-5.65465e-07
4.55205e-07
-6.1896e-07
5.19782e-07
-6.45237e-07
5.72182e-07
-6.38775e-07
6.16729e-07
-6.00542e-07
6.45161e-07
-5.21729e-07
6.52662e-07
-4.30537e-07
6.55701e-07
-3.51461e-07
6.60946e-07
-2.76763e-07
6.64682e-07
-2.10391e-07
6.69789e-07
-1.60203e-07
6.78866e-07
-1.23501e-07
6.87808e-07
-9.39914e-08
6.93526e-07
-7.42702e-08
6.98765e-07
-6.27674e-08
7.07489e-07
-5.43679e-08
7.18995e-07
-4.17183e-08
7.28569e-07
-2.50718e-08
7.32906e-07
-9.00631e-09
7.32046e-07
1.99195e-09
7.30179e-07
6.69977e-09
7.294e-07
7.04032e-09
7.3347e-07
5.40147e-09
7.39273e-07
3.75868e-09
7.48869e-07
2.37875e-09
1.85677e-09
-2.22033e-07
1.6131e-07
-9.71659e-08
6.97665e-08
-1.15984e-08
4.79633e-08
1.9555e-07
2.7325e-07
3.02349e-07
5.3009e-07
3.71023e-07
5.64834e-07
4.10939e-07
4.96369e-07
4.43814e-07
3.51455e-07
4.69959e-07
1.49335e-07
4.91984e-07
-7.01417e-08
5.0608e-07
-2.64903e-07
5.15771e-07
-3.89752e-07
5.27548e-07
-4.67894e-07
5.54401e-07
-5.3684e-07
5.95539e-07
-6.06603e-07
6.38814e-07
-6.62235e-07
6.76304e-07
-6.82727e-07
6.94272e-07
-6.56743e-07
6.94052e-07
-6.00322e-07
6.9395e-07
-5.21627e-07
6.88401e-07
-4.24988e-07
6.76149e-07
-3.39209e-07
6.70213e-07
-2.70827e-07
6.71771e-07
-2.11949e-07
6.75929e-07
-1.64362e-07
6.83229e-07
-1.308e-07
6.93224e-07
-1.03987e-07
7.01499e-07
-8.25452e-08
7.05487e-07
-6.67549e-08
7.08054e-07
-5.69352e-08
7.13459e-07
-4.71232e-08
7.21462e-07
-3.3075e-08
7.29333e-07
-1.6877e-08
7.32387e-07
-1.06208e-09
7.32412e-07
6.67453e-09
7.28848e-07
1.0605e-08
7.27866e-07
6.38294e-09
7.28317e-07
3.30833e-09
7.32766e-07
-2.07122e-09
-5.9989e-09
6.60985e-07
3.8753e-07
4.40544e-07
2.90207e-07
2.69266e-07
2.19241e-07
3.05313e-07
2.37204e-07
4.60861e-07
3.74541e-07
5.99703e-07
4.25992e-07
6.93592e-07
4.0248e-07
7.54986e-07
2.90062e-07
7.88034e-07
1.16286e-07
7.98528e-07
-8.06351e-08
7.92864e-07
-2.59239e-07
7.88131e-07
-3.85019e-07
7.94535e-07
-4.74299e-07
8.13636e-07
-5.5594e-07
8.39053e-07
-6.3202e-07
8.54625e-07
-6.77808e-07
8.51794e-07
-6.79896e-07
8.34399e-07
-6.39348e-07
7.98908e-07
-5.6483e-07
7.59756e-07
-4.82475e-07
7.3406e-07
-3.99292e-07
7.16804e-07
-3.21952e-07
7.06051e-07
-2.60074e-07
7.06353e-07
-2.12251e-07
7.1551e-07
-1.73518e-07
7.28685e-07
-1.43976e-07
7.42679e-07
-1.17981e-07
7.54186e-07
-9.40524e-08
7.60309e-07
-7.28782e-08
7.6116e-07
-5.77861e-08
7.60777e-07
-4.674e-08
7.62138e-07
-3.44359e-08
7.6758e-07
-2.23186e-08
7.73799e-07
-7.28148e-09
7.80476e-07
-2.46015e-12
7.84415e-07
6.66603e-09
7.86475e-07
4.323e-09
7.87655e-07
2.12799e-09
7.87107e-07
-1.52237e-09
-7.75084e-09
1.01137e-06
4.05953e-07
9.51773e-07
3.49803e-07
8.37599e-07
3.33415e-07
7.33604e-07
3.412e-07
7.20283e-07
3.87862e-07
7.76809e-07
3.69466e-07
8.55631e-07
3.23658e-07
9.26448e-07
2.19245e-07
9.7106e-07
7.16742e-08
9.88325e-07
-9.79004e-08
9.8949e-07
-2.60404e-07
9.93773e-07
-3.89301e-07
1.01025e-06
-4.90781e-07
1.02667e-06
-5.72354e-07
1.02193e-06
-6.27284e-07
9.92064e-07
-6.47938e-07
9.41282e-07
-6.29115e-07
8.80199e-07
-5.78265e-07
8.26377e-07
-5.11008e-07
7.83455e-07
-4.39553e-07
7.54507e-07
-3.70344e-07
7.41232e-07
-3.08677e-07
7.37203e-07
-2.56045e-07
7.36935e-07
-2.11984e-07
7.39894e-07
-1.76477e-07
7.48063e-07
-1.52145e-07
7.60841e-07
-1.30759e-07
7.73391e-07
-1.06603e-07
7.808e-07
-8.02865e-08
7.82337e-07
-5.93231e-08
7.81613e-07
-4.60162e-08
7.81382e-07
-3.42046e-08
7.83418e-07
-2.43548e-08
7.86898e-07
-1.07621e-08
7.91416e-07
-4.52029e-09
7.97582e-07
4.99878e-10
8.03615e-07
-1.70969e-09
8.10024e-07
-4.28118e-09
8.14887e-07
-6.38494e-09
-9.39959e-09
1.07852e-06
3.77835e-07
1.07825e-06
3.50073e-07
1.06756e-06
3.4411e-07
1.06282e-06
3.45939e-07
1.07376e-06
3.76921e-07
1.09835e-06
3.44874e-07
1.14123e-06
2.80783e-07
1.18146e-06
1.7901e-07
1.20533e-06
4.78037e-08
1.21931e-06
-1.11882e-07
1.21819e-06
-2.59284e-07
1.20534e-06
-3.76449e-07
1.19196e-06
-4.77397e-07
1.17289e-06
-5.53289e-07
1.1304e-06
-5.84796e-07
1.05782e-06
-5.75353e-07
9.73104e-07
-5.44401e-07
8.95143e-07
-5.00304e-07
8.34427e-07
-4.50292e-07
7.9767e-07
-4.02795e-07
7.80553e-07
-3.53227e-07
7.74695e-07
-3.02819e-07
7.77555e-07
-2.58905e-07
7.85496e-07
-2.19925e-07
7.89535e-07
-1.80515e-07
7.86551e-07
-1.49161e-07
7.8349e-07
-1.27698e-07
7.85456e-07
-1.08569e-07
7.88871e-07
-8.37016e-08
7.89126e-07
-5.95778e-08
7.87396e-07
-4.42866e-08
7.89022e-07
-3.58306e-08
7.95244e-07
-3.05759e-08
8.03713e-07
-1.92319e-08
8.09339e-07
-1.01464e-08
8.10325e-07
-4.85301e-10
8.09733e-07
-1.11836e-09
8.07973e-07
-2.52062e-09
8.10207e-07
-8.61915e-09
-1.29325e-08
1.07865e-06
3.46843e-07
1.10845e-06
3.20275e-07
1.1328e-06
3.19759e-07
1.16637e-06
3.1237e-07
1.21892e-06
3.2437e-07
1.26507e-06
2.98717e-07
1.31227e-06
2.33587e-07
1.34523e-06
1.46046e-07
1.35796e-06
3.50772e-08
1.3572e-06
-1.1112e-07
1.34124e-06
-2.43325e-07
1.30147e-06
-3.36681e-07
1.24887e-06
-4.24793e-07
1.18821e-06
-4.92636e-07
1.11824e-06
-5.14825e-07
1.04569e-06
-5.02803e-07
9.7712e-07
-4.75828e-07
9.23376e-07
-4.4656e-07
8.86068e-07
-4.12985e-07
8.57961e-07