/*--------------------------------*- C++ -*----------------------------------*\
| =========                 |                                                 |
| \\      /  F ield         | OpenFOAM: The Open Source CFD Toolbox           |
|  \\    /   O peration     | Version:  2112                                  |
|   \\  /    A nd           | Website:  www.openfoam.com                      |
|    \\/     M anipulation  |                                                 |
\*---------------------------------------------------------------------------*/
FoamFile
{
    version     2.0;
    format      ascii;
    arch        "LSB;label=32;scalar=64";
    class       volVectorField;
    location    "0.43";
    object      U;
}
// * * * * * * * * * * * * * * * * * * * * * * * * * * * * * * * * * * * * * //

dimensions      [0 1 -1 0 0 0 0];

internalField   nonuniform List<vector> 
1880
(
(0.0988896 0.000565013 0)
(0.0985494 0.00120357 0)
(0.0971854 0.00126755 0)
(0.0959821 0.001383 0)
(0.0939861 0.00131026 0)
(0.092529 0.00146006 0)
(0.0904008 0.00134667 0)
(0.0889851 0.00150801 0)
(0.0868008 0.00136 0)
(0.0853186 0.00150593 0)
(0.0831155 0.00132296 0)
(0.0815199 0.00148802 0)
(0.0792533 0.00135127 0)
(0.0775974 0.00150101 0)
(0.0751161 0.00135647 0)
(0.0735706 0.00151931 0)
(0.0705422 0.00147022 0)
(0.0692575 0.00159323 0)
(0.065496 0.00159305 0)
(0.0643639 0.00170523 0)
(0.0598832 0.00178226 0)
(0.058554 0.00210899 0)
(0.0532768 0.00201181 0)
(0.0514231 0.00253833 0)
(0.0454386 0.00240216 0)
(0.0421948 0.00334069 0)
(0.0356526 0.00329716 0)
(0.0297925 0.00388595 0)
(0.0233492 0.00404301 0)
(0.0145053 0.00259728 0)
(0.0997742 0.000797182 0)
(0.100404 0.00125412 0)
(0.100682 0.00183728 0)
(0.100735 0.00157195 0)
(0.101481 0.00204561 0)
(0.100681 0.00176699 0)
(0.101764 0.00221487 0)
(0.100521 0.00196601 0)
(0.10154 0.00233023 0)
(0.100369 0.00215294 0)
(0.101069 0.0023736 0)
(0.0998771 0.00245069 0)
(0.100511 0.00230567 0)
(0.0989652 0.00285288 0)
(0.0996804 0.00241087 0)
(0.0979476 0.00307533 0)
(0.0980989 0.00292685 0)
(0.0967347 0.00310685 0)
(0.0963655 0.00355477 0)
(0.0942962 0.00366598 0)
(0.0947677 0.0039638 0)
(0.0906049 0.00457779 0)
(0.0923458 0.00495539 0)
(0.0865137 0.005291 0)
(0.0882023 0.00665096 0)
(0.0809015 0.00695633 0)
(0.0831619 0.00805587 0)
(0.0724808 0.00963288 0)
(0.0762667 0.0101186 0)
(0.0603068 0.0118587 0)
(0.100179 0.000364446 0)
(0.099912 0.000453283 0)
(0.10078 0.0012653 0)
(0.100447 0.000856181 0)
(0.101423 0.0016195 0)
(0.100919 0.00122269 0)
(0.101822 0.00160578 0)
(0.101314 0.00170386 0)
(0.102008 0.00168457 0)
(0.101617 0.00187254 0)
(0.102182 0.00221589 0)
(0.101675 0.00170625 0)
(0.102483 0.00282283 0)
(0.101319 0.00190088 0)
(0.102731 0.0030075 0)
(0.101022 0.00251392 0)
(0.102304 0.00348383 0)
(0.100965 0.00264976 0)
(0.101524 0.00472614 0)
(0.100169 0.00291011 0)
(0.101231 0.00558363 0)
(0.0983562 0.00457381 0)
(0.100676 0.00620124 0)
(0.0964862 0.00614643 0)
(0.098796 0.00881237 0)
(0.0944235 0.0071622 0)
(0.096496 0.0122298 0)
(0.090736 0.0102733 0)
(0.0937494 0.0152372 0)
(0.0850866 0.0135183 0)
(0.100161 0.00042174 0)
(0.0998242 0.000423852 0)
(0.100591 0.00120119 0)
(0.100162 0.000956981 0)
(0.100996 0.00158979 0)
(0.100639 0.00129309 0)
(0.101309 0.00171473 0)
(0.101043 0.00165939 0)
(0.101627 0.00188805 0)
(0.101205 0.00186797 0)
(0.101998 0.00233749 0)
(0.101325 0.00189724 0)
(0.102231 0.00286619 0)
(0.101429 0.00218566 0)
(0.102341 0.00310557 0)
(0.101428 0.00285975 0)
(0.102349 0.00357628 0)
(0.101287 0.0032345 0)
(0.102158 0.00475325 0)
(0.101101 0.00374699 0)
(0.101699 0.00567784 0)
(0.100565 0.00550116 0)
(0.101598 0.00649837 0)
(0.0992127 0.00737072 0)
(0.101307 0.00881892 0)
(0.0983211 0.00936552 0)
(0.0997805 0.011609 0)
(0.0977868 0.0128347 0)
(0.0984756 0.0155609 0)
(0.0958923 0.0169242 0)
(0.100054 0.000328809 0)
(0.0999871 0.000164472 0)
(0.100338 0.000966167 0)
(0.100253 0.000544389 0)
(0.100643 0.00136363 0)
(0.100621 0.000894754 0)
(0.10096 0.00150985 0)
(0.101003 0.00123108 0)
(0.10125 0.00180389 0)
(0.101263 0.00129911 0)
(0.101497 0.00243981 0)
(0.101543 0.00127063 0)
(0.101656 0.00299759 0)
(0.101768 0.00171206 0)
(0.101772 0.00317043 0)
(0.101902 0.00247354 0)
(0.101818 0.00373031 0)
(0.101897 0.00290462 0)
(0.101817 0.0049287 0)
(0.101809 0.00357695 0)
(0.101569 0.00590254 0)
(0.101673 0.00525066 0)
(0.101464 0.00709216 0)
(0.101133 0.00695911 0)
(0.101287 0.00962364 0)
(0.100831 0.00885605 0)
(0.100804 0.012582 0)
(0.100758 0.0122803 0)
(0.100429 0.0163366 0)
(0.100888 0.0165074 0)
(0.100087 0.00023786 0)
(0.0999541 0.000235856 0)
(0.100287 0.000758814 0)
(0.100236 0.00058709 0)
(0.10045 0.00118246 0)
(0.100612 0.000879372 0)
(0.100701 0.00143444 0)
(0.100971 0.00117289 0)
(0.10105 0.00172811 0)
(0.101192 0.00133538 0)
(0.101324 0.00225907 0)
(0.101548 0.00142007 0)
(0.101424 0.00281874 0)
(0.101884 0.00185055 0)
(0.101604 0.00308059 0)
(0.10202 0.00263302 0)
(0.101812 0.00360168 0)
(0.10207 0.00322854 0)
(0.101924 0.00470309 0)
(0.102186 0.00404188 0)
(0.10182 0.00569028 0)
(0.1022 0.00567972 0)
(0.102017 0.00697722 0)
(0.101915 0.00744467 0)
(0.102125 0.0092591 0)
(0.10212 0.00967244 0)
(0.10197 0.0119434 0)
(0.102516 0.0128323 0)
(0.102437 0.0156893 0)
(0.102902 0.0170163 0)
(0.100048 0.000204261 0)
(0.0999927 0.000127866 0)
(0.100225 0.000663073 0)
(0.100225 0.000387002 0)
(0.100375 0.00103851 0)
(0.10055 0.000655345 0)
(0.100592 0.00129108 0)
(0.100931 0.000917534 0)
(0.100915 0.00161107 0)
(0.101198 0.00107062 0)
(0.101217 0.00211134 0)
(0.101556 0.00123577 0)
(0.101398 0.00260138 0)
(0.101916 0.00173033 0)
(0.101632 0.00292195 0)
(0.10216 0.00244363 0)
(0.101897 0.00353819 0)
(0.102314 0.00307445 0)
(0.102162 0.00459188 0)
(0.10255 0.00397175 0)
(0.102204 0.00562849 0)
(0.102811 0.00547415 0)
(0.102523 0.0070784 0)
(0.102889 0.0071142 0)
(0.102873 0.00935371 0)
(0.103327 0.00926364 0)
(0.103224 0.0119067 0)
(0.104065 0.0122619 0)
(0.103976 0.0153685 0)
(0.105105 0.0160324 0)
(0.100073 0.000108867 0)
(0.0999721 0.000173025 0)
(0.100195 0.00048391 0)
(0.100216 0.000371123 0)
(0.100316 0.000837307 0)
(0.100527 0.000577362 0)
(0.100543 0.00111745 0)
(0.100874 0.000815403 0)
(0.100922 0.00141791 0)
(0.101141 0.00102692 0)
(0.101255 0.00184103 0)
(0.10155 0.00126231 0)
(0.101474 0.00230708 0)
(0.101951 0.00175221 0)
(0.101797 0.00268038 0)
(0.102251 0.00243582 0)
(0.102152 0.00331475 0)
(0.102522 0.00310146 0)
(0.102524 0.00431944 0)
(0.102885 0.00404474 0)
(0.102771 0.00534986 0)
(0.103276 0.00548273 0)
(0.103285 0.0067912 0)
(0.10365 0.00711542 0)
(0.103803 0.00886049 0)
(0.104401 0.00925822 0)
(0.104525 0.0112745 0)
(0.105341 0.0119899 0)
(0.105738 0.0144081 0)
(0.1067 0.0155547 0)
(0.100062 9.06364e-05 0)
(0.0999719 0.000108452 0)
(0.100177 0.000397136 0)
(0.100201 0.000266688 0)
(0.10031 0.000680073 0)
(0.100505 0.000457666 0)
(0.100535 0.000926637 0)
(0.100865 0.000679484 0)
(0.100928 0.00121192 0)
(0.101151 0.00089664 0)
(0.101317 0.00159078 0)
(0.101569 0.0011664 0)
(0.101612 0.00202552 0)
(0.102011 0.00164054 0)
(0.101992 0.00244561 0)
(0.102412 0.00226989 0)
(0.102412 0.00309161 0)
(0.10279 0.00295297 0)
(0.102908 0.00404084 0)
(0.103277 0.003899 0)
(0.103309 0.00508329 0)
(0.103834 0.00521474 0)
(0.103987 0.0065276 0)
(0.104449 0.00676301 0)
(0.104727 0.00846604 0)
(0.105409 0.00881126 0)
(0.105749 0.0106882 0)
(0.106637 0.0113296 0)
(0.107204 0.0135403 0)
(0.108305 0.014468 0)
(0.100059 3.46541e-05 0)
(0.0999812 0.000102882 0)
(0.100153 0.000271225 0)
(0.100205 0.000207054 0)
(0.100308 0.000500285 0)
(0.100494 0.000355495 0)
(0.100572 0.000714623 0)
(0.100847 0.000565248 0)
(0.100997 0.000956339 0)
(0.10117 0.000806385 0)
(0.101408 0.00128162 0)
(0.10164 0.00109168 0)
(0.101757 0.00170237 0)
(0.102119 0.00153219 0)
(0.102224 0.00215247 0)
(0.102588 0.00211919 0)
(0.102719 0.00278644 0)
(0.103076 0.00280754 0)
(0.103322 0.00367295 0)
(0.103676 0.00374751 0)
(0.103875 0.00468524 0)
(0.104382 0.00496986 0)
(0.104702 0.00606834 0)
(0.105214 0.00645653 0)
(0.10562 0.00783986 0)
(0.106364 0.00836552 0)
(0.10691 0.00990505 0)
(0.107791 0.0106579 0)
(0.108593 0.0124193 0)
(0.1097 0.013472 0)
(0.100049 1.64863e-05 0)
(0.0999884 5.32485e-05 0)
(0.100138 0.000170501 0)
(0.100211 0.000118988 0)
(0.100322 0.000324282 0)
(0.10051 0.000239227 0)
(0.100615 0.000494709 0)
(0.100878 0.000421374 0)
(0.101069 0.000711877 0)
(0.101232 0.000648315 0)
(0.101523 0.00100298 0)
(0.10174 0.000929047 0)
(0.101926 0.00139513 0)
(0.102271 0.00134241 0)
(0.102456 0.00184471 0)
(0.102817 0.00189022 0)
(0.103028 0.0024528 0)
(0.103395 0.00255882 0)
(0.103742 0.00328337 0)
(0.104103 0.00345659 0)
(0.104417 0.00426162 0)
(0.104956 0.00457603 0)
(0.105383 0.00556137 0)
(0.105952 0.00597184 0)
(0.106481 0.00717134 0)
(0.107258 0.00774147 0)
(0.107965 0.00904946 0)
(0.10889 0.00979812 0)
(0.109814 0.0112929 0)
(0.110971 0.01225 0)
(0.100038 -1.47763e-05 0)
(0.100005 1.43343e-05 0)
(0.100129 6.03508e-05 0)
(0.100225 3.16417e-05 0)
(0.100352 0.000148872 0)
(0.100533 0.000117287 0)
(0.100686 0.000275214 0)
(0.100924 0.00028006 0)
(0.101163 0.000458582 0)
(0.101327 0.000496287 0)
(0.101644 0.000722556 0)
(0.101882 0.000755154 0)
(0.102104 0.00109379 0)
(0.10245 0.0011357 0)
(0.102714 0.00152691 0)
(0.103061 0.00165254 0)
(0.103353 0.00209112 0)
(0.103735 0.00229391 0)
(0.104159 0.00286099 0)
(0.104543 0.00313734 0)
(0.104949 0.00378859 0)
(0.10552 0.00415967 0)
(0.106044 0.00498027 0)
(0.10666 0.00545792 0)
(0.107291 0.00643455 0)
(0.108102 0.00705608 0)
(0.108938 0.00813738 0)
(0.109888 0.00889652 0)
(0.110913 0.0101039 0)
(0.112103 0.0110205 0)
(0.100028 -3.57817e-05 0)
(0.100019 -4.31032e-05 0)
(0.100132 -5.69549e-05 0)
(0.100251 -8.71818e-05 0)
(0.100396 -4.66989e-05 0)
(0.10059 -5.40088e-05 0)
(0.100773 2.87441e-05 0)
(0.101013 6.31996e-05 0)
(0.10128 0.000176387 0)
(0.101457 0.00024576 0)
(0.101795 0.000405174 0)
(0.102053 0.000476014 0)
(0.102302 0.0007359 0)
(0.102667 0.000827678 0)
(0.102982 0.00113946 0)
(0.103336 0.00130429 0)
(0.103691 0.00166031 0)
(0.104093 0.00190195 0)
(0.104579 0.00237058 0)
(0.104997 0.00268056 0)
(0.105465 0.00323456 0)
(0.106082 0.00361037 0)
(0.106681 0.00431211 0)
(0.10733 0.00479784 0)
(0.108055 0.00560981 0)
(0.108896 0.00623122 0)
(0.10982 0.00713508 0)
(0.110811 0.00784875 0)
(0.111901 0.00885222 0)
(0.113118 0.00967566 0)
(0.100019 -6.10071e-05 0)
(0.100034 -0.000106169 0)
(0.10014 -0.000174247 0)
(0.10028 -0.000207791 0)
(0.100452 -0.000222244 0)
(0.100655 -0.000207321 0)
(0.100875 -0.00017815 0)
(0.101122 -0.000112734 0)
(0.101411 -4.96837e-05 0)
(0.101616 4.74499e-05 0)
(0.101962 0.000158507 0)
(0.102253 0.000251821 0)
(0.102528 0.000452278 0)
(0.102908 0.000576448 0)
(0.103275 0.000817533 0)
(0.103637 0.00101272 0)
(0.104044 0.00128717 0)
(0.104478 0.00155185 0)
(0.105005 0.00193159 0)
(0.105459 0.00225332 0)
(0.105986 0.00271701 0)
(0.106638 0.00309407 0)
(0.107303 0.00366835 0)
(0.107981 0.00415292 0)
(0.108779 0.00481554 0)
(0.10965 0.00541333 0)
(0.110636 0.00616597 0)
(0.111659 0.00683011 0)
(0.112796 0.00764837 0)
(0.114033 0.00838151 0)
(0.100012 -9.3851e-05 0)
(0.100055 -0.000204886 0)
(0.100177 -0.000340804 0)
(0.100346 -0.00040677 0)
(0.100554 -0.000472643 0)
(0.100779 -0.000465503 0)
(0.101031 -0.000473788 0)
(0.101292 -0.000415761 0)
(0.101594 -0.000383167 0)
(0.101825 -0.000297397 0)
(0.102179 -0.000221233 0)
(0.102492 -0.000134016 0)
(0.10279 1.67404e-05 0)
(0.103187 0.000149618 0)
(0.103594 0.000337774 0)
(0.103965 0.000532049 0)
(0.104417 0.000755048 0)
(0.104879 0.00101127 0)
(0.105438 0.00133142 0)
(0.105929 0.00163501 0)
(0.106506 0.00203415 0)
(0.107186 0.00239033 0)
(0.107908 0.00286724 0)
(0.108604 0.00332115 0)
(0.109464 0.00387339 0)
(0.110365 0.00442188 0)
(0.111397 0.00505408 0)
(0.112444 0.00564251 0)
(0.11362 0.00631567 0)
(0.114862 0.00695643 0)
(0.100008 -0.000121613 0)
(0.100074 -0.000283003 0)
(0.100221 -0.000457528 0)
(0.100426 -0.000533344 0)
(0.100685 -0.00061677 0)
(0.100934 -0.000609 0)
(0.101222 -0.000638523 0)
(0.101498 -0.00058733 0)
(0.101815 -0.00057832 0)
(0.10207 -0.000507379 0)
(0.10244 -0.000454157 0)
(0.102772 -0.00037515 0)
(0.103108 -0.00026007 0)
(0.103512 -0.000120369 0)
(0.103964 2.56598e-05 0)
(0.104348 0.000212632 0)
(0.104845 0.000392366 0)
(0.105331 0.000626584 0)
(0.105919 0.000894471 0)
(0.10643 0.00117016 0)
(0.107071 0.00150387 0)
(0.107761 0.00183381 0)
(0.108541 0.00220977 0)
(0.109246 0.0026202 0)
(0.110161 0.00307549 0)
(0.111069 0.00356658 0)
(0.112143 0.00408772 0)
(0.113192 0.00460027 0)
(0.114424 0.0051382 0)
(0.115653 0.00568015 0)
(0.100005 -0.000211936 0)
(0.100117 -0.000529902 0)
(0.10033 -0.000797178 0)
(0.10058 -0.000912057 0)
(0.100896 -0.00101203 0)
(0.101159 -0.00101648 0)
(0.101485 -0.00106003 0)
(0.101762 -0.00102761 0)
(0.1021 -0.00103305 0)
(0.102368 -0.000982767 0)
(0.102772 -0.000943705 0)
(0.103101 -0.00087498 0)
(0.103488 -0.000783515 0)
(0.10388 -0.000651307 0)
(0.104382 -0.000544085 0)
(0.104756 -0.00038875 0)
(0.105304 -0.000240281 0)
(0.105784 -4.14058e-05 0)
(0.106415 0.000176867 0)
(0.10692 0.000408486 0)
(0.10764 0.000684503 0)
(0.108303 0.000976293 0)
(0.109152 0.0012795 0)
(0.109843 0.00164283 0)
(0.110833 0.00202353 0)
(0.111713 0.00244037 0)
(0.112855 0.00286047 0)
(0.113866 0.00329105 0)
(0.115178 0.00372742 0)
(0.116363 0.00418725 0)
(0.0999982 -0.000237241 0)
(0.100224 -0.000596782 0)
(0.100568 -0.000848077 0)
(0.10093 -0.000957965 0)
(0.101309 -0.00104829 0)
(0.101599 -0.00107296 0)
(0.101936 -0.00113277 0)
(0.102209 -0.00112464 0)
(0.102549 -0.00115291 0)
(0.102818 -0.00113176 0)
(0.103227 -0.00110588 0)
(0.103531 -0.00106178 0)
(0.10393 -0.00100147 0)
(0.104277 -0.000894364 0)
(0.104774 -0.000825458 0)
(0.10512 -0.000704356 0)
(0.105667 -0.000584581 0)
(0.106105 -0.000422433 0)
(0.106721 -0.000243225 0)
(0.107206 -4.56218e-05 0)
(0.107942 0.000179324 0)
(0.10857 0.000424878 0)
(0.109419 0.000653202 0)
(0.110094 0.000964708 0)
(0.11109 0.0012837 0)
(0.111939 0.00163142 0)
(0.113112 0.00195423 0)
(0.114111 0.00229237 0)
(0.115486 0.00261694 0)
(0.116654 0.00298145 0)
(0.0999741 -0.000691663 0)
(0.10035 -0.00136161 0)
(0.100702 -0.00157364 0)
(0.101095 -0.00161384 0)
(0.10133 -0.00166868 0)
(0.101553 -0.001714 0)
(0.10166 -0.00176809 0)
(0.101817 -0.0017612 0)
(0.101887 -0.00176986 0)
(0.102024 -0.00174512 0)
(0.102104 -0.00170988 0)
(0.102216 -0.00166114 0)
(0.102268 -0.00160012 0)
(0.102432 -0.00151505 0)
(0.102536 -0.00147 0)
(0.102679 -0.00137127 0)
(0.102814 -0.0012597 0)
(0.10307 -0.00112159 0)
(0.103295 -0.000994876 0)
(0.103636 -0.000848903 0)
(0.103963 -0.000695261 0)
(0.104425 -0.000498517 0)
(0.104889 -0.000319449 0)
(0.105528 -7.89565e-05 0)
(0.106217 0.000141686 0)
(0.107056 0.000380969 0)
(0.107939 0.000591089 0)
(0.108961 0.000844452 0)
(0.110092 0.00108161 0)
(0.111387 0.00135592 0)
(0.0990144 -0.000603228 0)
(0.0984648 -0.00114475 0)
(0.0974127 -0.00127734 0)
(0.0960147 -0.00127956 0)
(0.0943755 -0.00129954 0)
(0.0927841 -0.00132577 0)
(0.0911328 -0.00132503 0)
(0.0896187 -0.00131352 0)
(0.0880133 -0.00130709 0)
(0.0865301 -0.00125897 0)
(0.0849921 -0.001203 0)
(0.0835886 -0.00116436 0)
(0.0821121 -0.00112688 0)
(0.0808363 -0.00107195 0)
(0.0794813 -0.00101055 0)
(0.0783336 -0.000939109 0)
(0.0771294 -0.000886289 0)
(0.0761789 -0.000838392 0)
(0.075127 -0.000763729 0)
(0.0744039 -0.000648175 0)
(0.0735977 -0.000548919 0)
(0.0731602 -0.000485685 0)
(0.0725702 -0.000428237 0)
(0.072423 -0.00032577 0)
(0.0721373 -0.000187828 0)
(0.0723955 -3.98739e-05 0)
(0.0724495 9.12031e-05 0)
(0.0730869 0.000179944 0)
(0.0734451 0.000246771 0)
(0.0744422 0.000297117 0)
(0.0104375 0.000659647 0)
(0.0396216 0.0138908 0)
(0.0295423 0.0104854 0)
(0.0624003 0.0248864 8.35672e-22)
(0.0450708 0.0199528 6.78898e-22)
(0.079403 0.0332384 0)
(0.0596599 0.0281101 2.84155e-22)
(0.0973759 0.0395346 1.90493e-23)
(0.0758348 0.0354774 6.63176e-22)
(0.123553 0.0437711 0)
(0.06588 0.0125497 0)
(0.0720382 0.0199254 0)
(0.07965 0.0223592 0)
(0.0871959 0.0321641 0)
(0.0917219 0.0327403 0)
(0.0990142 0.0404093 1.69416e-22)
(0.104497 0.0390059 5.39965e-23)
(0.117203 0.0503302 -8.42028e-23)
(0.120458 0.0438963 -5.10091e-22)
(0.13669 0.0523945 -4.6516e-22)
(0.0882425 0.0214215 0)
(0.0903606 0.0229103 0)
(0.0951724 0.0281487 0)
(0.0975797 0.0294828 0)
(0.104982 0.0384141 0)
(0.108232 0.0363748 -1.69416e-22)
(0.11413 0.0384128 -5.39963e-23)
(0.121883 0.0404905 8.42017e-23)
(0.130623 0.0453223 2.68491e-22)
(0.136694 0.0392702 4.65166e-22)
(0.0957543 0.0198204 -3.66415e-22)
(0.0984073 0.0248951 0)
(0.101627 0.0271054 -2.95149e-22)
(0.104105 0.0289279 -2.44696e-22)
(0.1089 0.0330071 -1.74857e-22)
(0.114399 0.0370039 0)
(0.118444 0.0362789 0)
(0.123129 0.0364272 1.28194e-22)
(0.131945 0.0405533 2.71637e-22)
(0.138846 0.0397672 4.14665e-22)
(0.0996541 0.0213615 3.66416e-22)
(0.102396 0.0222939 0)
(0.105179 0.0270383 2.95149e-22)
(0.108178 0.0274179 2.44697e-22)
(0.111086 0.0318965 1.74858e-22)
(0.116637 0.0326 0)
(0.121049 0.0344706 0)
(0.125532 0.0320543 -1.28194e-22)
(0.131647 0.0353406 -2.71638e-22)
(0.138435 0.0329962 -4.14667e-22)
(0.102961 0.0198366 0)
(0.105033 0.0219858 -2.6479e-22)
(0.1075 0.0251519 0)
(0.110582 0.0256392 -1.7219e-22)
(0.113873 0.0282067 0)
(0.118414 0.0297207 0)
(0.123011 0.0316605 0)
(0.127187 0.0294712 -1.50715e-22)
(0.13244 0.0317482 0)
(0.138329 0.030593 0)
(0.10515 0.0195068 2.6058e-22)
(0.107235 0.0201244 4.98564e-22)
(0.109802 0.0234791 1.92979e-22)
(0.11308 0.023757 1.7219e-22)
(0.115791 0.0265657 0)
(0.11971 0.0265382 -1.82688e-23)
(0.124078 0.0287484 0)
(0.128399 0.0265245 1.50715e-22)
(0.132645 0.0278401 0)
(0.138046 0.0264483 0)
(0.10731 0.0180072 -2.60581e-22)
(0.109287 0.0189572 -2.33774e-22)
(0.111693 0.0215463 -1.92979e-22)
(0.114661 0.0218271 0)
(0.1176 0.02382 0)
(0.121191 0.0239646 1.82688e-23)
(0.125149 0.0257353 0)
(0.129432 0.0240093 0)
(0.133092 0.0248298 0)
(0.137458 0.0236839 0)
(0.109115 0.0168276 0)
(0.111022 0.0173937 -1.82991e-22)
(0.113376 0.019648 0)
(0.116286 0.0198191 -1.00295e-22)
(0.11903 0.02176 0)
(0.122326 0.0214295 0)
(0.125923 0.0228579 8.08092e-23)
(0.129877 0.0215402 1.61295e-22)
(0.133282 0.0220647 0)
(0.137304 0.0204948 3.33532e-22)
(0.110721 0.015331 0)
(0.112565 0.0159015 1.82991e-22)
(0.114852 0.0177639 0)
(0.117521 0.0178967 1.00295e-22)
(0.120215 0.0193557 0)
(0.123353 0.0191654 0)
(0.126591 0.020304 -8.08094e-23)
(0.130236 0.0190958 -1.61295e-22)
(0.133544 0.019317 0)
(0.137022 0.0179779 -3.33533e-22)
(0.112131 0.0138586 8.50706e-23)
(0.113912 0.0143097 0)
(0.116097 0.0158688 0)
(0.11868 0.0159717 3.48345e-23)
(0.121234 0.0172378 0)
(0.124111 0.0169141 0)
(0.127166 0.0177691 0)
(0.130531 0.0168581 -7.99823e-23)
(0.133565 0.0169729 0)
(0.136659 0.0155064 0)
(0.113352 0.0123373 -7.76534e-24)
(0.115084 0.0127588 0)
(0.117187 0.0140362 4.87366e-23)
(0.119603 0.0141214 -5.7892e-24)
(0.122059 0.0151175 0)
(0.12479 0.0149003 0)
(0.127616 0.0155192 -4.69752e-23)
(0.130658 0.0146686 7.99824e-23)
(0.133548 0.0146712 -1.12805e-22)
(0.136437 0.0133746 -1.47808e-22)
(0.114437 0.0107715 -6.63198e-24)
(0.116127 0.0111364 0)
(0.11814 0.0121939 -5.66392e-24)
(0.120444 0.0122897 -4.74613e-24)
(0.122785 0.0130785 3.24603e-24)
(0.12534 0.012848 2.07397e-23)
(0.128017 0.0133157 -8.44774e-25)
(0.13082 0.0126277 -7.77475e-23)
(0.133477 0.0125338 3.45566e-24)
(0.136119 0.0113078 5.53915e-24)
(0.115395 0.00927271 -7.06736e-23)
(0.117034 0.00960571 0)
(0.118959 0.0104679 -4.30728e-23)
(0.121139 0.0105679 -2.42993e-23)
(0.123391 0.0111995 -3.24603e-24)
(0.1258 0.0110377 -4.33637e-23)
(0.128296 0.0113565 4.78201e-23)
(0.130905 0.0107316 7.77476e-23)
(0.133409 0.0106082 1.09349e-22)
(0.135877 0.00953866 1.4227e-22)
(0.116266 0.00768223 0)
(0.117874 0.00797816 0)
(0.119733 0.00867881 0)
(0.121804 0.00878529 0)
(0.123962 0.00927449 0)
(0.126243 0.00913058 2.26241e-23)
(0.128607 0.00935618 0)
(0.131026 0.0088391 0)
(0.133353 0.00866877 0)
(0.135656 0.00773497 0)
(0.117092 0.00625766 0)
(0.118622 0.0065263 0)
(0.120421 0.00709879 0)
(0.122361 0.00722241 0)
(0.124454 0.00761773 0)
(0.126597 0.00752188 1.24189e-23)
(0.12885 0.00767126 0)
(0.131109 0.00722992 0)
(0.133334 0.0070444 0)
(0.135484 0.00625154 0)
(0.117892 0.00464495 0)
(0.119313 0.00488204 0)
(0.121122 0.00533205 1.42015e-23)
(0.122869 0.00544999 0)
(0.124937 0.00574789 -2.65177e-24)
(0.126863 0.00567427 -1.24189e-23)
(0.12906 0.00576677 0)
(0.131062 0.00541742 -3.57999e-23)
(0.133211 0.00523497 0)
(0.135106 0.00459246 0)
(0.118222 0.00333735 0)
(0.119274 0.00355674 0)
(0.121095 0.00391697 -1.42015e-23)
(0.122425 0.00405361 0)
(0.124522 0.00428412 2.65178e-24)
(0.126012 0.00424651 0)
(0.128242 0.00428491 0)
(0.129767 0.00400135 3.58001e-23)
(0.131957 0.00380206 0)
(0.13333 0.00328105 0)
(0.112819 0.00159115 -6.15186e-24)
(0.113272 0.00175514 -4.74537e-24)
(0.115019 0.00197968 -3.12384e-24)
(0.115674 0.00209348 0)
(0.117714 0.00223052 8.34225e-25)
(0.118457 0.00222169 0)
(0.120653 0.00223372 5.76374e-24)
(0.12134 0.00206878 0)
(0.123536 0.00192754 1.16451e-23)
(0.123953 0.00160457 1.49039e-23)
(0.0751208 0.000337676 6.15116e-24)
(0.075267 0.000376752 4.74478e-24)
(0.076335 0.00045783 3.12343e-24)
(0.0767352 0.000530725 0)
(0.0781809 0.00057067 -8.34104e-25)
(0.0787087 0.000562495 0)
(0.0803543 0.000510607 -5.76281e-24)
(0.0807344 0.000404138 0)
(0.082293 0.000260375 -1.16429e-23)
(0.0821392 8.27647e-05 -1.49011e-23)
(0.0103916 -0.00573025 0)
(0.0221232 0.002366 0)
(0.0152138 0.00924888 0)
(0.0162882 -0.000262966 0)
(0.00966042 0.00828662 0)
(-0.0342939 0.0181137 0)
(-0.0782398 0.0162583 0)
(-0.108703 0.0110866 0)
(-0.126459 0.00673444 0)
(-0.134098 0.00304089 0)
(-0.133425 0.000172708 0)
(-0.127976 -0.00191784 0)
(-0.117188 -0.00314479 0)
(-0.105706 -0.00392669 0)
(-0.0903408 -0.00448902 0)
(-0.0738051 -0.00533487 0)
(-0.0573735 -0.00567862 0)
(-0.0359378 -0.00630958 0)
(-0.0178706 -0.00564001 0)
(0.0015124 -0.00527668 0)
(0.0179634 -0.00427225 0)
(0.0321173 -0.00318492 0)
(0.0430363 -0.00208279 0)
(0.051083 -0.00114059 0)
(0.0566299 -0.000404269 0)
(0.0602946 0.000130808 0)
(0.0624635 0.000522402 0)
(0.06356 0.000843991 0)
(0.0637165 0.00117185 0)
(0.0630326 0.00150802 0)
(0.0614301 0.00176132 0)
(0.0590815 0.0018473 0)
(0.0561806 0.00173008 0)
(0.0531114 0.00146536 0)
(0.0501797 0.00112949 0)
(0.0475673 0.000800087 0)
(0.0455199 0.00052938 0)
(0.0437513 0.000319847 0)
(0.0427352 0.000192608 0)
(0.0414437 9.47094e-05 0)
(0.0100793 -0.0186928 0)
(0.0142029 -0.0047415 0)
(0.0252243 -0.00574685 0)
(0.000787772 0.00513008 0)
(-0.0357226 0.0288954 0)
(-0.0751049 0.0408415 0)
(-0.0995863 0.034056 0)
(-0.120572 0.0232911 0)
(-0.127826 0.0121164 0)
(-0.132884 0.00293457 0)
(-0.12611 -0.00500922 0)
(-0.120373 -0.00992722 0)
(-0.10527 -0.0136989 0)
(-0.0950827 -0.0158921 0)
(-0.0772876 -0.0183259 0)
(-0.0614884 -0.0191256 0)
(-0.0429114 -0.0213559 0)
(-0.0232049 -0.022543 0)
(-0.00429322 -0.0213763 0)
(0.0150218 -0.0202837 0)
(0.0318934 -0.0176057 0)
(0.0467714 -0.0145007 0)
(0.0588647 -0.0112358 0)
(0.0684394 -0.00830314 0)
(0.0756424 -0.0058904 0)
(0.0811125 -0.00409365 0)
(0.0852087 -0.00274612 0)
(0.0883638 -0.00172046 0)
(0.0908298 -0.000786645 0)
(0.0927751 0.000108471 0)
(0.0943288 0.00103086 0)
(0.0953601 0.0018283 0)
(0.0959442 0.00248625 0)
(0.0957642 0.00276828 0)
(0.0951731 0.00279607 0)
(0.0939429 0.00248101 0)
(0.0928307 0.00214524 0)
(0.0913875 0.00164321 0)
(0.090624 0.00136506 0)
(0.0893213 0.000943839 0)
(0.008166 -0.0244516 0)
(-0.00691768 -0.00857809 0)
(-0.00987706 0.0190706 0)
(-0.0274368 0.040679 0)
(-0.0503216 0.0597984 0)
(-0.0705708 0.0614788 0)
(-0.0837567 0.0483034 0)
(-0.096453 0.0326551 0)
(-0.0997851 0.0168722 0)
(-0.102073 0.00292581 0)
(-0.0942152 -0.00916441 0)
(-0.0873248 -0.0169903 0)
(-0.0735597 -0.0221455 0)
(-0.0622132 -0.024785 0)
(-0.0475972 -0.0279495 0)
(-0.0326868 -0.0308774 0)
(-0.0161613 -0.0332497 0)
(0.000345424 -0.0346362 0)
(0.0165996 -0.0339663 0)
(0.0323086 -0.0318371 0)
(0.0462431 -0.027755 0)
(0.0582564 -0.0229495 0)
(0.0680353 -0.0179337 0)
(0.0759891 -0.0133395 0)
(0.0820312 -0.00953462 0)
(0.0866097 -0.00678252 0)
(0.0901381 -0.00477578 0)
(0.0931196 -0.00331255 0)
(0.0956411 -0.00208933 0)
(0.0977675 -0.00110288 0)
(0.0996436 -0.000152519 0)
(0.101502 0.000697504 0)
(0.103346 0.00154782 0)
(0.105037 0.00219188 0)
(0.106253 0.00262221 0)
(0.106929 0.00265539 0)
(0.107003 0.00249533 0)
(0.106609 0.00201609 0)
(0.106201 0.00171036 0)
(0.105329 0.00113867 0)
(0.00941083 -0.0164511 0)
(-0.0105766 0.00985361 0)
(-0.0101762 0.0107617 0)
(-0.0282895 0.0404654 0)
(-0.0449679 0.0600252 0)
(-0.0550244 0.0630778 0)
(-0.0580476 0.0515583 0)
(-0.0655289 0.0358305 0)
(-0.0666555 0.0175988 0)
(-0.0676756 0.000154958 0)
(-0.061101 -0.0154484 0)
(-0.0531065 -0.0251563 0)
(-0.0409908 -0.031671 0)
(-0.0301495 -0.0350959 0)
(-0.0165256 -0.038794 0)
(-0.00237369 -0.0417952 0)
(0.0121162 -0.0446282 0)
(0.0272237 -0.0457493 0)
(0.0407593 -0.0446437 0)
(0.0524795 -0.0415801 0)
(0.0627398 -0.0363167 0)
(0.0714931 -0.0300132 0)
(0.0781327 -0.0237624 0)
(0.0835057 -0.0180828 0)
(0.0878422 -0.0131945 0)
(0.0911344 -0.00964636 0)
(0.0934703 -0.00723951 0)
(0.0956135 -0.00553845 0)
(0.0977847 -0.00400031 0)
(0.0998473 -0.00269128 0)
(0.101377 -0.00160143 0)
(0.102588 -0.000807253 0)
(0.103677 -9.15131e-05 0)
(0.105085 0.000594078 0)
(0.106564 0.00131428 0)
(0.108022 0.00180829 0)
(0.109191 0.00223637 0)
(0.109732 0.00210219 0)
(0.11016 0.00215458 0)
(0.109769 0.00154348 0)
(0.00618764 -0.0281137 0)
(-0.014115 0.0042751 0)
(-0.0245204 0.0281609 0)
(-0.0194361 0.0582019 0)
(-0.022025 0.0755864 0)
(-0.0194665 0.0745248 0)
(-0.0204138 0.0589662 0)
(-0.0251156 0.0409041 0)
(-0.0257318 0.0198658 0)
(-0.0252066 -0.000389652 0)
(-0.0199737 -0.0196979 0)
(-0.0129282 -0.0323425 0)
(-0.00376223 -0.0393476 0)
(0.00547663 -0.0434479 0)
(0.0164439 -0.0475933 0)
(0.0282689 -0.0516319 0)
(0.0411143 -0.0545668 0)
(0.0531997 -0.0552812 0)
(0.0642926 -0.0525616 0)
(0.0725338 -0.0476414 0)
(0.0778515 -0.041515 0)
(0.0826302 -0.0340567 0)
(0.0863893 -0.0265484 0)
(0.0889367 -0.0202749 0)
(0.0911883 -0.0149579 0)
(0.0934535 -0.0107843 0)
(0.0950145 -0.00805338 0)
(0.0961238 -0.00655131 0)
(0.0974518 -0.0052709 0)
(0.0993694 -0.00378906 0)
(0.101256 -0.00219892 0)
(0.102579 -0.000989125 0)
(0.103127 -0.000238303 0)
(0.10345 0.000159367 0)
(0.1039 0.00057404 0)
(0.104769 0.000848635 0)
(0.105879 0.00135921 0)
(0.10713 0.00139222 0)
(0.108044 0.00173666 0)
(0.10918 0.00146655 0)
(-0.0140681 -0.00639388 0)
(-0.0227427 0.0375311 0)
(-0.00889708 0.0175876 0)
(-0.00248883 0.0462429 0)
(-0.000998949 0.0607248 0)
(0.00745392 0.0614347 0)
(0.0119611 0.0527824 0)
(0.0146565 0.0388125 0)
(0.0174844 0.0184942 0)
(0.0210702 -0.00341739 0)
(0.0266845 -0.0237513 0)
(0.0316201 -0.0368231 0)
(0.0365452 -0.0444905 0)
(0.0423855 -0.0494047 0)
(0.0498071 -0.0544379 0)
(0.0591903 -0.0591889 0)
(0.0691637 -0.0620665 0)
(0.0771418 -0.0625815 0)
(0.0831447 -0.0592374 0)
(0.0888362 -0.051537 0)
(0.0909099 -0.0434702 0)
(0.0909914 -0.03593 0)
(0.0918423 -0.028013 0)
(0.0926551 -0.0212619 0)
(0.0930755 -0.0162122 0)
(0.0942162 -0.0122003 0)
(0.0957212 -0.00901445 0)
(0.096795 -0.00718751 0)
(0.0973656 -0.00623883 0)
(0.0982787 -0.00532284 0)
(0.0998197 -0.0038159 0)
(0.101508 -0.0020822 0)
(0.102502 -0.000679013 0)
(0.102717 7.67907e-05 0)
(0.102274 0.000400908 0)
(0.10222 0.00041166 0)
(0.102059 0.000534399 0)
(0.103378 0.000511169 0)
(0.103658 0.000644321 0)
(0.106078 0.000663428 0)
(-0.0638775 -0.00657458 0)
(-0.00121165 -0.001264 0)
(-0.02397 0.00705712 0)
(0.0209168 0.0475219 0)
(0.0332798 0.0680649 0)
(0.0489305 0.0664097 0)
(0.0539114 0.0551977 0)
(0.0591481 0.038286 0)
(0.0637664 0.01651 0)
(0.0680986 -0.0063924 0)
(0.0714912 -0.02606 0)
(0.0724064 -0.0386557 0)
(0.0731135 -0.0464305 0)
(0.0751617 -0.0529079 0)
(0.0806544 -0.0591116 0)
(0.0869875 -0.0648414 0)
(0.0928856 -0.0672011 0)
(0.0972569 -0.0653368 0)
(0.0969601 -0.0611244 0)
(0.0964927 -0.0533132 0)
(0.0968592 -0.0432525 0)
(0.0951473 -0.0348844 0)
(0.0935201 -0.0276798 0)
(0.0936171 -0.0210048 0)
(0.0941023 -0.0159165 0)
(0.0948781 -0.0125477 0)
(0.0962237 -0.00982153 0)
(0.0977493 -0.00768919 0)
(0.0986001 -0.00632388 0)
(0.0988972 -0.00556276 0)
(0.0993397 -0.00454939 0)
(0.100415 -0.00295936 0)
(0.101596 -0.00114095 0)
(0.102627 0.000306979 0)
(0.102462 0.000928439 0)
(0.102645 0.000984924 0)
(0.101466 0.00053351 0)
(0.102407 0.000229861 0)
(0.101557 -0.000174988 0)
(0.103676 -0.000290182 0)
(0.106008 0.037923 0)
(0.07625 0.017546 0)
(0.0410942 0.00385819 0)
(0.0320929 0.00847639 0)
(0.0478218 0.0377055 0)
(0.0727497 0.0476904 0)
(0.0860097 0.0457969 0)
(0.0965765 0.0336638 0)
(0.103204 0.0144765 0)
(0.1071 -0.00684993 0)
(0.107762 -0.0257448 0)
(0.106079 -0.0383455 0)
(0.105359 -0.0468333 0)
(0.107273 -0.0547947 0)
(0.110655 -0.0625051 0)
(0.114273 -0.0674987 0)
(0.11469 -0.0691093 0)
(0.112948 -0.0659117 0)
(0.1092 -0.0587743 0)
(0.103003 -0.0506841 0)
(0.0987106 -0.0415178 0)
(0.0963379 -0.032954 0)
(0.0942418 -0.0266069 0)
(0.0935682 -0.0215305 0)
(0.0944187 -0.0170251 0)
(0.0960981 -0.013593 0)
(0.0979924 -0.0109223 0)
(0.0998784 -0.00877045 0)
(0.101129 -0.00698521 0)
(0.10156 -0.00578165 0)
(0.101388 -0.0048377 0)
(0.101463 -0.0036334 0)
(0.101771 -0.00223586 0)
(0.102915 -0.000535641 0)
(0.103435 0.000399161 0)
(0.104726 0.00113647 0)
(0.104471 0.000740311 0)
(0.105318 0.000431519 0)
(0.104737 -0.000251404 0)
(0.105191 -0.000938647 0)
(0.138751 0.042996 0)
(0.132871 0.0372736 0)
(0.121421 0.0368688 0)
(0.105759 0.0366978 0)
(0.090161 0.0382971 0)
(0.0982311 0.0372208 0)
(0.107595 0.0340204 0)
(0.118402 0.0240271 0)
(0.127076 0.00870193 0)
(0.132015 -0.00946218 0)
(0.133387 -0.0263806 0)
(0.13275 -0.039081 0)
(0.133647 -0.0485455 0)
(0.136795 -0.0563831 0)
(0.138224 -0.0633549 0)
(0.135558 -0.0673422 0)
(0.129872 -0.0661441 0)
(0.121181 -0.0613757 0)
(0.112966 -0.0540948 0)
(0.106603 -0.0458496 0)
(0.101623 -0.0381565 0)
(0.099018 -0.0310741 0)
(0.0981371 -0.0250048 0)
(0.0979859 -0.0205899 0)
(0.0981265 -0.0175255 0)
(0.0988829 -0.0152075 0)
(0.100382 -0.0127142 0)
(0.102332 -0.0100521 0)
(0.103782 -0.00758025 0)