/*--------------------------------*- C++ -*----------------------------------*\
| =========                 |                                                 |
| \\      /  F ield         | OpenFOAM: The Open Source CFD Toolbox           |
|  \\    /   O peration     | Version:  2112                                  |
|   \\  /    A nd           | Website:  www.openfoam.com                      |
|    \\/     M anipulation  |                                                 |
\*---------------------------------------------------------------------------*/
FoamFile
{
    version     2.0;
    format      ascii;
    arch        "LSB;label=32;scalar=64";
    class       volScalarField;
    location    "0.03";
    object      nut;
}
// * * * * * * * * * * * * * * * * * * * * * * * * * * * * * * * * * * * * * //

dimensions      [0 2 -1 0 0 0 0];

internalField   nonuniform List<scalar> 
1880
(
1.47518e-10
3.65465e-10
1.2913e-10
9.73623e-13
7.52807e-12
4.92189e-14
1.67665e-13
3.29593e-15
2.90937e-16
5.59921e-18
1.93293e-18
1.21537e-17
3.9084e-17
9.09101e-17
1.91511e-16
3.87771e-16
7.59165e-16
1.52101e-15
3.09837e-15
6.54713e-15
1.4204e-14
3.58137e-14
8.15698e-14
3.23473e-13
6.71589e-13
6.56822e-12
1.20131e-11
2.85346e-10
1.1691e-09
1.97382e-08
4.36986e-08
1.00825e-07
5.17072e-08
3.89559e-09
1.22498e-08
2.1575e-10
2.17224e-10
6.89599e-12
7.7239e-13
1.33176e-14
1.96044e-13
8.84017e-13
2.40893e-12
5.41032e-12
1.10909e-11
2.22497e-11
4.41223e-11
8.74711e-11
1.74412e-10
3.50815e-10
6.95261e-10
1.40886e-09
2.60447e-09
5.32088e-09
8.09938e-09
1.70161e-08
2.02586e-08
4.31813e-08
4.99252e-08
9.29295e-08
3.52808e-08
9.45442e-08
5.30579e-08
1.92964e-09
2.4408e-08
9.65633e-10
7.88703e-09
1.64199e-09
9.36188e-10
9.62391e-10
1.13793e-09
1.30991e-09
1.51864e-09
1.78099e-09
2.09884e-09
2.48234e-09
2.94927e-09
3.52026e-09
4.22053e-09
5.0922e-09
6.17314e-09
7.57009e-09
9.26672e-09
1.17093e-08
1.42754e-08
1.91928e-08
2.20968e-08
3.29528e-08
3.71702e-08
5.16728e-08
4.14389e-08
9.31827e-08
5.61387e-08
5.20952e-10
2.62668e-08
1.40546e-09
7.36762e-09
1.42877e-09
9.80797e-10
8.79641e-10
1.0438e-09
1.22367e-09
1.43688e-09
1.69531e-09
2.00739e-09
2.38352e-09
2.8359e-09
3.3857e-09
4.05646e-09
4.88536e-09
5.89771e-09
7.20169e-09
8.7317e-09
1.09628e-08
1.32158e-08
1.74577e-08
2.04846e-08
2.79009e-08
3.12967e-08
4.64967e-08
4.24588e-08
9.13774e-08
5.66843e-08
6.56828e-10
2.61888e-08
8.66845e-10
7.5021e-09
1.47169e-09
8.75944e-10
7.22982e-10
9.21307e-10
1.12318e-09
1.35464e-09
1.62712e-09
1.94461e-09
2.31947e-09
2.76581e-09
3.30213e-09
3.94944e-09
4.7398e-09
5.69592e-09
6.89994e-09
8.3233e-09
1.02582e-08
1.24376e-08
1.56514e-08
1.89296e-08
2.34807e-08
2.69809e-08
3.32127e-08
4.33404e-08
9.06591e-08
5.79614e-08
1.12648e-10
2.64772e-08
1.02488e-09
6.99831e-09
1.49586e-09
8.93818e-10
6.26619e-10
8.25644e-10
1.04914e-09
1.29156e-09
1.56893e-09
1.88787e-09
2.25921e-09
2.6968e-09
3.21687e-09
3.83752e-09
4.58541e-09
5.48323e-09
6.58838e-09
7.90475e-09
9.56483e-09
1.16244e-08
1.41197e-08
1.73878e-08
2.02194e-08
2.38064e-08
2.86161e-08
4.36934e-08
9.00823e-08
5.85167e-08
2.29147e-10
2.66156e-08
9.21955e-10
6.37628e-09
1.51471e-09
9.11239e-10
5.85206e-10
7.80263e-10
1.00672e-09
1.25131e-09
1.52743e-09
1.84278e-09
2.20699e-09
2.63264e-09
3.13229e-09
3.72274e-09
4.42798e-09
5.26903e-09
6.2747e-09
7.48537e-09
8.89842e-09
1.08274e-08
1.27389e-08
1.59563e-08
1.76902e-08
2.10032e-08
2.43102e-08
4.38967e-08
8.97952e-08
5.88355e-08
3.06813e-10
2.67764e-08
9.66386e-10
5.67714e-09
1.53594e-09
8.90526e-10
6.26883e-10
7.83027e-10
1.00019e-09
1.23687e-09
1.50592e-09
1.8135e-09
2.16536e-09
2.57302e-09
3.05045e-09
3.61292e-09
4.27589e-09
5.05755e-09
5.96923e-09
7.08141e-09
8.29182e-09
1.00845e-08
1.15342e-08
1.46169e-08
1.5575e-08
1.87125e-08
2.12795e-08
4.3997e-08
8.96535e-08
5.89316e-08
4.11073e-10
2.69561e-08
9.75095e-10
5.10338e-09
1.51264e-09
9.31008e-10
7.01261e-10
8.23122e-10
1.02138e-09
1.24768e-09
1.50446e-09
1.79538e-09
2.13064e-09
2.52171e-09
2.97774e-09
3.50959e-09
4.1283e-09
4.85303e-09
5.68311e-09
6.70356e-09
7.74923e-09
9.38475e-09
1.05057e-08
1.33497e-08
1.39008e-08
1.66991e-08
1.86356e-08
4.40407e-08
8.96458e-08
5.88535e-08
5.55832e-10
2.71421e-08
1.03801e-09
4.77127e-09
1.4375e-09
9.91294e-10
7.93325e-10
8.8769e-10
1.06558e-09
1.27303e-09
1.51102e-09
1.78631e-09
2.10726e-09
2.4799e-09
2.91092e-09
3.41085e-09
3.98885e-09
4.66353e-09
5.42379e-09
6.35583e-09
7.27202e-09
8.73773e-09
9.64158e-09
1.2166e-08
1.25205e-08
1.49815e-08
1.64995e-08
4.40421e-08
8.97261e-08
5.86279e-08
7.16181e-10
2.73536e-08
1.13024e-09
4.72807e-09
1.41202e-09
1.07329e-09
8.92451e-10
9.58596e-10
1.1145e-09
1.30394e-09
1.5257e-09
1.78572e-09
2.08971e-09
2.44175e-09
2.84874e-09
3.32014e-09
3.86165e-09
4.48983e-09
5.18876e-09
6.03848e-09
6.85593e-09
8.15284e-09
8.91238e-09
1.10893e-08
1.13676e-08
1.35138e-08
1.47483e-08
4.39992e-08
8.99019e-08
5.82498e-08
8.89673e-10
2.75547e-08
1.22281e-09
4.94065e-09
1.41012e-09
1.15797e-09
9.80889e-10
1.02386e-09
1.16153e-09
1.3346e-09
1.54088e-09
1.78556e-09
2.07258e-09
2.40626e-09
2.79285e-09
3.23856e-09
3.74688e-09
4.33185e-09
4.97743e-09
5.75389e-09
6.49657e-09
7.63637e-09
8.30929e-09
1.01376e-08
1.04324e-08
1.22501e-08
1.33182e-08
4.38934e-08
9.01788e-08
5.77162e-08
1.06071e-09
2.77643e-08
1.33112e-09
5.35588e-09
1.41704e-09
1.22875e-09
1.04912e-09
1.07429e-09
1.1981e-09
1.35785e-09
1.55103e-09
1.78254e-09
2.05505e-09
2.37252e-09
2.74045e-09
3.16315e-09
3.6431e-09
4.19144e-09
4.79237e-09
5.50349e-09
6.18749e-09
7.18621e-09
7.80932e-09
9.32097e-09
9.66425e-09
1.11822e-08
1.2143e-08
4.36843e-08
9.05939e-08
5.6947e-08
1.29902e-09
2.78972e-08
1.40567e-09
5.83686e-09
1.44701e-09
1.2732e-09
1.09236e-09
1.10454e-09
1.21776e-09
1.36805e-09
1.55163e-09
1.7727e-09
2.03425e-09
2.33949e-09
2.69175e-09
3.09471e-09
3.55023e-09
4.06668e-09
4.63067e-09
5.28646e-09
5.92576e-09
6.80397e-09
7.39803e-09
8.64091e-09
9.04084e-09
1.02918e-08
1.11652e-08
4.33168e-08
9.13253e-08
5.60719e-08
1.39148e-09
2.81565e-08
1.55046e-09
6.3709e-09
1.42438e-09
1.30575e-09
1.10858e-09
1.10893e-09
1.21567e-09
1.36135e-09
1.54014e-09
1.75533e-09
2.00996e-09
2.30667e-09
2.64665e-09
3.0333e-09
3.46883e-09
3.95887e-09
4.49286e-09
5.10242e-09
5.70656e-09
6.48348e-09
7.06322e-09
8.08696e-09
8.53736e-09
9.56579e-09
1.03495e-08
4.24348e-08
9.20563e-08
5.42143e-08
1.88807e-09
2.7983e-08
1.5564e-09
6.78692e-09
1.53745e-09
1.2628e-09
1.08035e-09
1.08131e-09
1.18917e-09
1.33709e-09
1.51683e-09
1.73122e-09
1.98251e-09
2.27312e-09
2.60449e-09
2.97931e-09
3.39941e-09
3.8683e-09
4.37837e-09
4.94983e-09
5.52672e-09
6.22287e-09
6.79515e-09
7.64893e-09
8.13741e-09
8.98301e-09
9.67931e-09
4.13609e-08
9.40387e-08
5.38483e-08
1.81398e-09
2.86741e-08
1.83497e-09
7.08479e-09
1.39264e-09
1.27627e-09
1.03079e-09
1.02225e-09
1.13991e-09
1.29709e-09
1.48292e-09
1.70092e-09
1.95322e-09
2.24112e-09
2.56683e-09
2.93331e-09
3.34188e-09
3.79451e-09
4.28627e-09
4.82801e-09
5.38464e-09
6.01823e-09
6.58617e-09
7.31032e-09
7.83191e-09
8.52794e-09
9.15679e-09
3.49457e-08
9.51839e-08
4.98094e-08
2.52379e-09
2.72898e-08
1.18879e-09
6.96861e-09
1.34405e-09
8.20151e-10
6.50765e-10
7.26993e-10
9.0357e-10
1.10304e-09
1.31813e-09
1.55618e-09
1.82203e-09
2.11876e-09
2.44969e-09
2.81794e-09
3.22459e-09
3.67117e-09
4.1554e-09
4.68094e-09
5.22744e-09
5.82141e-09
6.38981e-09
7.02831e-09
7.5723e-09
8.15522e-09
8.77239e-09
4.37667e-08
1.00907e-07
5.00473e-08
6.00206e-09
1.19007e-08
3.44843e-10
3.24414e-10
2.66736e-11
7.50037e-12
2.65469e-12
1.48085e-12
1.11461e-12
9.91178e-13
9.84838e-13
1.02557e-12
1.06815e-12
1.06503e-12
9.68938e-13
7.60493e-13
4.61769e-13
1.67791e-13
1.24333e-14
1.10554e-14
4.76766e-13
3.0525e-12
1.11564e-11
3.18929e-11
6.4803e-11
1.36124e-10
2.69027e-10
1.46628e-10
3.65698e-10
1.29504e-10
1.09156e-12
7.70503e-12
5.86342e-14
1.69567e-13
4.81997e-15
9.059e-16
1.69638e-16
6.92537e-17
4.91801e-17
4.59976e-17
5.24563e-17
6.60633e-17
8.64585e-17
1.1453e-16
1.51417e-16
1.98019e-16
2.52809e-16
3.10935e-16
3.66913e-16
4.15897e-16
4.39049e-16
4.27205e-16
4.2954e-16
2.47788e-16
3.33051e-16
4.09345e-17
1.0128e-16
2.01638e-08
2.25701e-10
1.99257e-10
1.44051e-11
4.25121e-10
5.0356e-09
1.37903e-08
6.36549e-09
6.88383e-08
7.96375e-12
1.10882e-07
9.89917e-08
5.53941e-08
3.33512e-08
1.04811e-07
9.06467e-08
7.54052e-08
1.67791e-07
3.64418e-08
2.12001e-07
1.28335e-07
5.32382e-08
6.81508e-08
5.86461e-08
7.76007e-08
8.7433e-08
8.41877e-08
3.01708e-08
1.25255e-07
7.20909e-08
6.90203e-08
5.42805e-08
5.0813e-08
4.36135e-08
1.19348e-07
8.22205e-08
1.83969e-07
7.78258e-08
7.71966e-08
8.52174e-08
7.22214e-08
3.78332e-08
4.516e-08
4.40983e-08
5.81012e-08
5.44647e-08
7.32042e-08
5.11467e-08
6.87137e-08
8.98713e-08
5.12717e-08
3.54628e-08
3.70243e-08
3.60294e-08
4.99475e-08
4.2741e-08
7.47592e-08
5.69505e-08
4.93174e-08
8.08396e-08
4.47637e-08
2.92489e-08
3.14801e-08
3.28737e-08
3.60423e-08
3.79831e-08
4.14729e-08
4.14887e-08
4.51418e-08
5.85331e-08
3.68667e-08
2.61782e-08
2.96048e-08
2.86482e-08
3.40493e-08
3.31543e-08
3.45612e-08
3.72142e-08
3.44311e-08
4.20806e-08
3.14673e-08
2.29546e-08
2.74337e-08
2.53954e-08
2.63942e-08
2.76227e-08
2.82828e-08
2.80769e-08
2.81735e-08
2.7931e-08
2.58259e-08
2.0652e-08
2.58468e-08
2.22987e-08
2.25805e-08
2.35147e-08
2.39312e-08
2.37256e-08
2.30799e-08
2.28297e-08
2.07323e-08
1.84651e-08
2.26016e-08
1.94168e-08
1.93483e-08
1.9849e-08
1.98939e-08
1.91369e-08
1.84709e-08
1.73422e-08
1.65194e-08
1.65505e-08
1.95601e-08
1.69498e-08
1.66735e-08
1.69118e-08
1.68188e-08
1.59764e-08
1.51886e-08
1.43662e-08
1.35597e-08
1.48198e-08
1.6769e-08
1.48182e-08
1.44677e-08
1.44344e-08
1.41236e-08
1.31959e-08
1.23249e-08
1.15096e-08
1.16962e-08
1.33095e-08
1.45236e-08
1.30361e-08
1.26129e-08
1.23897e-08
1.19283e-08
1.09496e-08
1.00541e-08
9.31568e-09
1.05469e-08
1.20183e-08
1.27487e-08
1.15762e-08
1.10778e-08
1.06945e-08
1.00895e-08
9.05963e-09
8.1289e-09
7.42964e-09
9.79997e-09
1.09402e-08
1.13564e-08
1.04076e-08
9.82962e-09
9.30932e-09
8.57941e-09
7.4921e-09
6.51557e-09
5.82407e-09
9.29382e-09
1.00711e-08
1.02904e-08
9.50761e-09
8.84814e-09
8.20806e-09
7.36309e-09
6.22302e-09
5.16272e-09
4.46283e-09
8.89794e-09
9.37669e-09
9.48823e-09
8.9026e-09
8.21604e-09
7.47272e-09
6.53528e-09
5.36411e-09
4.2189e-09
3.32314e-09
3.03431e-10
4.83541e-10
6.29669e-10
5.41418e-10
4.02656e-10
3.24929e-10
2.48764e-10
2.08461e-10
1.21362e-10
1.07917e-10
7.07632e-16
4.33873e-15
5.33082e-15
4.48433e-15
4.18102e-15
4.87784e-15
7.11364e-15
8.95852e-15
1.01832e-14
6.19555e-15
5.5335e-08
6.068e-10
6.20439e-08
4.44978e-08
8.32928e-09
1.41307e-09
2.98585e-10
6.65131e-11
1.59493e-11
4.12359e-12
1.1499e-12
3.46898e-13
1.135e-13
4.02932e-14
1.54304e-14
6.31577e-15
2.74891e-15
1.26339e-15
6.06211e-16
3.0235e-16
1.56754e-16
8.36559e-17
4.53863e-17
2.50677e-17
1.41741e-17
8.15803e-18
4.74519e-18
2.79248e-18
1.66442e-18
1.00218e-18
6.07917e-19
3.74454e-19
2.31542e-19
1.46993e-19
9.56241e-20
5.65409e-20
5.11569e-20
1.86887e-20
2.72187e-20
1.62938e-20
1.60886e-08
8.81952e-08
8.55374e-08
1.09688e-07
1.08132e-07
9.04777e-08
7.21614e-08
5.32378e-08
3.6422e-08
2.27247e-08
1.26973e-08
6.33444e-09
2.87448e-09
1.22659e-09
5.09518e-10
2.11693e-10
8.9606e-11
3.90447e-11
1.75826e-11
8.19355e-12
3.95029e-12
1.96365e-12
1.00193e-12
5.24116e-13
2.81204e-13
1.5437e-13
8.63298e-14
4.90356e-14
2.82336e-14
1.64531e-14
9.71247e-15
5.82377e-15
3.56273e-15
2.20312e-15
1.44062e-15
8.31894e-16
7.39074e-16
2.6073e-16
3.86695e-16
1.99993e-16
1.79117e-07
1.11744e-07
1.28576e-07
1.33573e-07
1.27033e-07
9.97257e-08
7.79675e-08
5.85554e-08
4.35961e-08
3.26265e-08
2.47115e-08
1.89947e-08
1.48174e-08
1.17135e-08
9.3646e-09
7.55474e-09
6.13627e-09
5.0067e-09
4.09372e-09
3.34538e-09
2.72373e-09
2.20136e-09
1.759e-09
1.38348e-09
1.06609e-09
8.01016e-10
5.84111e-10
4.1177e-10
2.79915e-10
1.83395e-10
1.16153e-10
7.14649e-11
4.3135e-11
2.54794e-11
1.53478e-11
8.35183e-12
6.24187e-12
2.20009e-12
2.8067e-12
1.19363e-12
9.02641e-08
1.17461e-07
1.34336e-07
1.46277e-07
1.46924e-07
1.13046e-07
8.46305e-08
6.11672e-08
4.42458e-08
3.24797e-08
2.4322e-08
1.8584e-08
1.4457e-08
1.14175e-08
9.13012e-09
7.37606e-09
6.00948e-09
4.93093e-09
4.0704e-09
3.37717e-09
2.81386e-09
2.35272e-09
1.97297e-09
1.65879e-09
1.39776e-09
1.18004e-09
9.97773e-10
8.44588e-10
7.15359e-10
6.05982e-10
5.13339e-10
4.34659e-10
3.68045e-10
3.10624e-10
2.62619e-10
2.16877e-10
1.82925e-10
1.08717e-10
9.02195e-11
1.21794e-11
2.10976e-07
1.70334e-06
2.8573e-10
7.18406e-08
1.53255e-07
1.29961e-07
9.33489e-08
6.39684e-08
4.44688e-08
3.18928e-08
2.36306e-08
1.80073e-08
1.40289e-08
1.11143e-08
8.91895e-09
7.22954e-09
5.90734e-09
4.85895e-09
4.01902e-09
3.3399e-09
2.78627e-09
2.33191e-09
1.95701e-09
1.6463e-09
1.38776e-09
1.17185e-09
9.90918e-10
8.38734e-10
7.10306e-10
6.01657e-10
5.09704e-10
4.31672e-10
3.65651e-10
3.08849e-10
2.61381e-10
2.16474e-10
1.81904e-10
1.06595e-10
8.77319e-11
1.23995e-11
3.38769e-07
5.88236e-06
6.02539e-07
3.04707e-09
8.48996e-08
1.40619e-07
1.05673e-07
6.74442e-08
4.41559e-08
3.07435e-08
2.25631e-08
1.72094e-08
1.34756e-08
1.07398e-08
8.66595e-09
7.05772e-09
5.78988e-09
4.778e-09
3.96277e-09
3.30061e-09
2.75877e-09
2.31262e-09
1.9435e-09
1.63692e-09
1.38135e-09
1.16756e-09
9.88154e-10
8.37126e-10
7.0964e-10
6.018e-10
5.10542e-10
4.33123e-10
3.67663e-10
3.11423e-10
2.64683e-10
2.20288e-10
1.88428e-10
1.17715e-10
1.05004e-10
2.17204e-11
8.53149e-09
2.82386e-06
2.95826e-08
2.60644e-08
8.59491e-08
1.43524e-07
1.32211e-07
8.50485e-08
4.94933e-08
3.07409e-08
2.14976e-08
1.628e-08
1.28244e-08
1.03037e-08
8.37416e-09
6.86027e-09
5.65462e-09
4.68446e-09
3.89759e-09
3.25488e-09
2.72651e-09
2.28985e-09
1.92751e-09
1.62577e-09
1.37362e-09
1.16229e-09
9.84723e-10
8.35112e-10
7.08742e-10
6.01816e-10
5.11341e-10
4.34631e-10
3.69827e-10
3.14227e-10
2.68283e-10
2.244e-10
1.95167e-10
1.28861e-10
1.2218e-10
3.57831e-11
6.009e-06
4.49509e-06
5.13149e-08
1.81278e-06
1.16021e-08
8.91257e-08
9.47798e-08
6.20457e-08
3.88132e-08
2.47707e-08
1.85983e-08
1.51534e-08
1.24637e-08
1.02456e-08
8.43586e-09
6.96841e-09
5.77799e-09
4.80866e-09
4.01558e-09
3.36346e-09
2.82461e-09
2.3774e-09
2.00491e-09
1.69372e-09
1.43302e-09
1.21411e-09
1.02987e-09
8.74434e-10
7.43029e-10
6.31818e-10
5.37731e-10
4.57992e-10
3.90665e-10
3.32974e-10
2.85583e-10
2.4005e-10
2.11916e-10
1.4629e-10
1.44565e-10
5.7069e-11
8.08103e-08
4.71233e-07
4.38405e-07
3.48848e-07
1.33046e-06
2.31228e-08
8.00954e-08
7.73196e-08
4.08236e-08
2.32415e-08
1.73966e-08
1.42344e-08
1.17863e-08
9.76085e-09
8.09406e-09
6.72855e-09
5.60964e-09
4.69024e-09
3.93195e-09
3.30418e-09
2.78254e-09
2.34757e-09
1.98379e-09
1.67882e-09
1.42264e-09
1.20702e-09
1.02519e-09
8.71557e-10
7.41567e-10
6.31522e-10
5.38403e-10
4.59491e-10
3.92879e-10
3.3589e-10
2.89347e-10
2.4435e-10
2.18506e-10
1.55951e-10
1.58161e-10
7.87963e-11
1.88007e-08
1.96986e-07
1.39984e-07
8.33262e-08
7.38292e-08
1.31173e-07
9.80072e-08
6.28289e-08
3.84595e-08
2.40682e-08
1.7158e-08
1.35964e-08
1.1183e-08
9.29355e-09
7.75347e-09
6.48491e-09
5.43614e-09
4.5667e-09
3.84381e-09
3.24115e-09
2.73741e-09
2.31526e-09
1.9607e-09
1.66238e-09
1.41103e-09
1.19894e-09
1.0197e-09
8.68015e-10
7.39551e-10
6.30739e-10
5.38615e-10
4.60538e-10
3.94644e-10
3.38354e-10
2.92624e-10
2.48113e-10
2.24191e-10
1.63697e-10
1.68676e-10
9.86457e-11
1.5182e-07
2.04148e-07
4.67604e-08
9.63392e-09
8.30125e-08
8.56537e-08
7.13217e-08
4.80051e-08
2.64563e-08
1.77737e-08
1.45573e-08
1.23573e-08
1.0451e-08
8.80614e-09
7.41289e-09
6.24273e-09
5.26278e-09
4.44223e-09
3.75433e-09
3.17675e-09
2.69101e-09
2.28186e-09
1.93669e-09
1.64519e-09
1.3988e-09
1.19034e-09
1.01377e-09
8.64084e-10
7.37173e-10
6.29582e-10
5.38419e-10
4.6114e-10
3.95926e-10
3.4029e-10
2.95277e-10
2.51183e-10
2.288e-10
1.69603e-10
1.76522e-10
1.14401e-10
6.15017e-08
1.29092e-07
1.44813e-07
7.1936e-08
7.20642e-08
7.21672e-08
5.1362e-08
3.44948e-08
2.33595e-08
1.74583e-08
1.41134e-08
1.17725e-08
9.91894e-09
8.38427e-09
7.09578e-09
6.00955e-09
5.09277e-09
4.31867e-09
3.66468e-09
3.11175e-09
2.64388e-09
2.24769e-09
1.91197e-09
1.62737e-09
1.38602e-09
1.18124e-09
1.00738e-09
8.59729e-10
7.34362e-10
6.27957e-10
5.37711e-10
4.61187e-10
3.96603e-10
3.41555e-10
2.97135e-10
2.53388e-10
2.32159e-10
1.73707e-10
1.81965e-10
1.25424e-10
8.11383e-08
9.98504e-08
6.82039e-08
4.32935e-08
5.2147e-08
4.66105e-08
3.43166e-08
2.38084e-08
1.80484e-08
1.49958e-08
1.27875e-08
1.09305e-08
9.33326e-09
7.96142e-09
6.78682e-09
5.7833e-09
4.92717e-09
4.19756e-09
3.57622e-09
3.04718e-09
2.59676e-09
2.21332e-09
1.88695e-09
1.60922e-09
1.3729e-09
1.17179e-09
1.00063e-09
8.54986e-10
7.31123e-10
6.25851e-10
5.36466e-10
4.60637e-10
3.96608e-10
3.42059e-10
2.98085e-10
2.5461e-10
2.34154e-10
1.7606e-10
1.85185e-10
1.3194e-10
6.50751e-08
4.58928e-08
6.71436e-08
4.54271e-08
3.34016e-08
2.93625e-08
2.35311e-08
1.93224e-08
1.63267e-08
1.39392e-08
1.19538e-08
1.02689e-08
8.82233e-09
7.57456e-09
6.49737e-09
5.56832e-09
4.76827e-09
4.08047e-09
3.49009e-09
2.98389e-09
2.55029e-09
2.17924e-09
1.86201e-09
1.59101e-09
1.35961e-09
1.1621e-09
9.93587e-10
8.49897e-10
7.27476e-10
6.23271e-10
5.34678e-10
4.59469e-10
3.95902e-10
3.41746e-10
2.98058e-10
2.54783e-10
2.34719e-10
1.76689e-10
1.8627e-10
1.34292e-10
3.77528e-08
3.89552e-08
3.16256e-08
2.83928e-08
2.68548e-08
2.37882e-08
2.01631e-08
1.71154e-08
1.47369e-08
1.27738e-08
1.10889e-08
9.62169e-09
8.33673e-09
7.21036e-09
6.22484e-09
5.36505e-09
4.61718e-09
3.96849e-09
3.40723e-09
2.92264e-09
2.50507e-09
2.14592e-09
1.8375e-09
1.57299e-09
1.34636e-09
1.15232e-09
9.86351e-10
8.44529e-10
7.2347e-10
6.20253e-10
5.32372e-10
4.57691e-10
3.9448e-10
3.40602e-10
2.97037e-10
2.5389e-10
2.33836e-10
1.75598e-10
1.85249e-10
1.32645e-10
4.19234e-08
2.63413e-08
2.59772e-08
2.4589e-08
2.20794e-08
1.9794e-08
1.72857e-08
1.51682e-08
1.33648e-08
1.1759e-08
1.03208e-08
9.0371e-09
7.89268e-09
6.87441e-09
5.97172e-09
5.17509e-09
4.47516e-09
3.86263e-09
3.32845e-09
2.86411e-09
2.46166e-09
2.11379e-09
1.81374e-09
1.55541e-09
1.3333e-09
1.14258e-09
9.7903e-10
8.38969e-10
7.19173e-10
6.16853e-10
5.29594e-10
4.55342e-10
3.92376e-10
3.3866e-10
2.95056e-10
2.51961e-10
2.31534e-10
1.72768e-10
1.82102e-10
1.26918e-10
2.4127e-08
2.14241e-08
2.07514e-08
1.99121e-08
1.83719e-08
1.69395e-08
1.52009e-08
1.3601e-08
1.21679e-08
1.08454e-08
9.62369e-09
8.50494e-09
7.48708e-09
6.5663e-09
5.73857e-09
4.99932e-09
4.34309e-09
3.76366e-09
3.25444e-09
2.80888e-09
2.42054e-09
2.08322e-09
1.79101e-09
1.53846e-09
1.32061e-09
1.13301e-09
9.71738e-10
8.33313e-10
7.1467e-10
6.13147e-10
5.26415e-10
4.52493e-10
3.8966e-10
3.35993e-10
2.92191e-10
2.49069e-10
2.27882e-10
1.68151e-10
1.7675e-10
1.16829e-10
2.32591e-08
1.79165e-08
1.60668e-08
1.61609e-08
1.54101e-08
1.45808e-08
1.33976e-08
1.2223e-08
1.11103e-08
1.00335e-08
9.0006e-09
8.02695e-09
7.12103e-09
6.28691e-09
5.52618e-09
4.83848e-09
4.22167e-09
3.67225e-09
3.18581e-09
2.75748e-09
2.38213e-09
2.05454e-09
1.76957e-09
1.52238e-09
1.30847e-09
1.12377e-09
9.64596e-10
8.27666e-10
7.1006e-10
6.09233e-10
5.22932e-10
4.49241e-10
3.86437e-10
3.32712e-10
2.88566e-10
2.4533e-10
2.2299e-10
1.61666e-10
1.69023e-10
1.02139e-10
1.72288e-08
1.44181e-08
1.31776e-08
1.34776e-08
1.30953e-08
1.26595e-08
1.18913e-08
1.10495e-08
1.01946e-08
9.322e-09
8.45019e-09
7.60237e-09
6.7944e-09
6.03652e-09
5.33504e-09
4.69313e-09
4.1115e-09
3.58898e-09
3.12307e-09
2.71035e-09
2.34679e-09
2.02803e-09
1.74965e-09
1.50735e-09
1.29705e-09
1.11499e-09
9.57725e-10
8.2214e-10
7.05453e-10
6.05224e-10
5.19262e-10
4.45711e-10
3.82842e-10
3.28962e-10
2.8434e-10
2.40899e-10
2.17006e-10
1.53215e-10
1.5864e-10
8.32526e-11
1.43746e-08
1.20272e-08
1.06939e-08
1.12203e-08
1.12075e-08
1.10821e-08
1.06315e-08
1.00542e-08
9.4095e-09
8.70631e-09
7.97041e-09
7.23025e-09
6.50693e-09
5.8153e-09
5.1655e-09
4.5637e-09
4.01303e-09
3.51433e-09
3.06666e-09
2.66784e-09
2.3148e-09
2.00395e-09
1.73147e-09
1.49356e-09
1.2865e-09
1.10681e-09
9.51249e-10
8.16854e-10
7.0097e-10
6.01243e-10
5.15534e-10
4.4204e-10
3.79027e-10
3.24914e-10
2.79708e-10
2.35969e-10
2.10113e-10
1.42743e-10
1.45244e-10
6.20202e-11
1.15804e-08
9.88343e-09
8.79021e-09
9.45232e-09
9.69496e-09
9.79772e-09
9.59022e-09
9.22159e-09
8.74623e-09
8.18189e-09
7.55905e-09
6.90955e-09
6.25815e-09
5.62316e-09
5.01772e-09
4.45049e-09
3.92665e-09
3.44867e-09
3.01692e-09
2.63026e-09
2.28642e-09
1.9825e-09
1.71522e-09
1.48117e-09
1.27697e-09
1.09937e-09
9.45289e-10
8.1193e-10
6.96733e-10
5.97417e-10
5.11885e-10
4.3838e-10
3.75163e-10
3.20759e-10
2.74894e-10
2.3077e-10
2.02538e-10
1.30378e-10
1.28656e-10
4.17214e-11
9.31566e-09
8.06195e-09
7.25082e-09
8.02743e-09
8.48106e-09
8.76044e-09
8.74124e-09
8.53668e-09
8.19627e-09
7.74402e-09
7.21361e-09
6.639e-09
6.0475e-09
5.45996e-09
4.89181e-09
4.35377e-09
3.85266e-09
3.39229e-09
2.97412e-09
2.59782e-09
2.26186e-09
1.96388e-09
1.70107e-09
1.47034e-09
1.26859e-09
1.09277e-09
9.39963e-10
8.07485e-10
6.92865e-10
5.93876e-10
5.08454e-10
4.34885e-10
3.71426e-10
3.16703e-10
2.70144e-10
2.25563e-10
1.94558e-10
1.16667e-10
1.0948e-10
2.54317e-11
7.23155e-09
6.45081e-09
6.01881e-09
6.89474e-09
7.52275e-09
7.9391e-09
8.06501e-09
7.98742e-09
7.75231e-09
7.38854e-09
6.93182e-09
6.41743e-09
5.87439e-09
5.32544e-09
4.78776e-09
4.27364e-09
3.79123e-09
3.34537e-09
2.93838e-09
2.57065e-09
2.24121e-09
1.94817e-09
1.68906e-09
1.46109e-09
1.26138e-09
1.08703e-09
9.35286e-10
8.03544e-10
6.89394e-10
5.90653e-10
5.05287e-10
4.31625e-10
3.67914e-10
3.12869e-10
2.6562e-10
2.20543e-10
1.86406e-10
1.0251e-10
8.94111e-11
1.42458e-11
5.1939e-09
4.97676e-09
5.11176e-09
6.05943e-09
6.80496e-09
7.3177e-09
7.54911e-09
7.56442e-09
7.40707e-09
7.10943e-09
6.70839e-09
6.23985e-09
5.73401e-09
5.21489e-09
4.70095e-09
4.20559e-09
3.73789e-09
3.3035e-09
2.90539e-09
2.54447e-09
2.22024e-09
1.93114e-09
1.67498e-09
1.4492e-09
1.25108e-09
1.07789e-09
9.2695e-10
7.95738e-10
6.81886e-10
5.83242e-10
4.97792e-10
4.23893e-10
3.59763e-10
3.04223e-10
2.55836e-10
2.09997e-10
1.69037e-10
7.72353e-11
5.71743e-11
4.63748e-12
3.7202e-09
3.90375e-09
4.36594e-09
5.37715e-09
6.19689e-09
6.73316e-09
6.99047e-09
7.02811e-09
6.8885e-09
6.6058e-09
6.21667e-09
5.75625e-09
5.25434e-09
4.73483e-09
4.21597e-09
3.71104e-09
3.22907e-09
2.77569e-09
2.354e-09
1.9653e-09
1.60977e-09
1.28725e-09
9.97808e-10
7.42391e-10
5.23031e-10
3.42584e-10
2.03559e-10
1.06158e-10
4.63824e-11
1.5777e-11
3.6016e-12
3.61992e-13
9.04079e-16
8.28793e-14
4.96427e-13
8.28599e-13
1.91862e-12
9.73085e-13
2.29209e-12
1.97058e-12
3.29121e-11
9.12644e-12
1.07827e-11
2.01028e-11
2.35263e-11
2.03102e-11
1.49653e-11
9.6401e-12
5.3186e-12
2.43736e-12
8.76032e-13
2.15842e-13
2.44519e-14
2.85789e-16
7.09815e-15
3.94687e-14
8.79484e-14
1.3219e-13
1.58902e-13
1.65153e-13
1.54923e-13
1.34683e-13
1.10429e-13
8.64451e-14
6.51961e-14
4.77139e-14
3.4088e-14
2.38951e-14
1.65064e-14
1.1277e-14
7.64515e-15
5.15895e-15
3.48227e-15
2.33976e-15
1.64084e-15
1.00427e-15
9.65489e-16
3.42653e-16
5.42154e-16
2.9467e-16
2.05668e-16
3.45167e-16
6.47013e-17
2.92924e-17
1.55419e-16
8.4089e-17
2.44077e-17
6.48116e-18
7.01121e-18
1.96826e-17
4.24966e-17
6.75466e-17
8.68409e-17
9.63425e-17
9.60247e-17
8.82552e-17
7.61177e-17
6.23683e-17
4.90057e-17
3.72075e-17
2.74633e-17
1.97979e-17
1.3986e-17
9.70591e-18
6.6311e-18
4.47077e-18
2.98282e-18
1.97506e-18
1.30159e-18
8.55165e-19
5.6209e-19
3.69013e-19
2.44751e-19
1.61227e-19
1.10737e-19
6.88904e-20
6.16987e-20
2.26901e-20
3.56768e-20
1.84818e-20
)
;

boundaryField
{
    inlet
    {
        type            calculated;
        value           nonuniform List<scalar> 
20
(
2.54747e-32
3.49902e-31
3.47185e-31
3.48146e-31
3.48109e-31
3.48116e-31
3.48091e-31
3.48073e-31
3.48063e-31
3.48069e-31
3.48084e-31
3.48103e-31
3.48118e-31
3.48145e-31
3.48179e-31
3.48205e-31
3.48217e-31
3.4729e-31
3.49972e-31
2.55028e-32
)
;
    }
    outlet
    {
        type            calculated;
        value           nonuniform List<scalar> 
27
(
2.95201e-36
2.22662e-36
1.4195e-36
7.18186e-37
2.48353e-37
3.74087e-38
1.82319e-41
2.23464e-38
1.90632e-37
5.97738e-37
1.22938e-36
1.97162e-36
2.65948e-36
3.14399e-36
3.34803e-36
3.27149e-36
2.11409e-36
7.40051e-36
5.26162e-39
1.00225e-41
9.18127e-42
4.2131e-39
4.48614e-36
5.97663e-36
3.64083e-36
3.66418e-36
3.44857e-36
)
;
    }
    lowerWall
    {
        type            fixedValue;
        value           uniform 0;
    }
    upperWall
    {
        type            fixedValue;
        value           uniform 0;
    }
    defaultFaces
    {
        type            empty;
    }
}


// ************************************************************************* //
