/*--------------------------------*- C++ -*----------------------------------*\
| =========                 |                                                 |
| \\      /  F ield         | OpenFOAM: The Open Source CFD Toolbox           |
|  \\    /   O peration     | Version:  2112                                  |
|   \\  /    A nd           | Website:  www.openfoam.com                      |
|    \\/     M anipulation  |                                                 |
\*---------------------------------------------------------------------------*/
FoamFile
{
    version     2.0;
    format      ascii;
    arch        "LSB;label=32;scalar=64";
    class       volScalarField;
    location    "0.03";
    object      p;
}
// * * * * * * * * * * * * * * * * * * * * * * * * * * * * * * * * * * * * * //

dimensions      [0 2 -2 0 0 0 0];

internalField   nonuniform List<scalar> 
1880
(
0.00554474
0.00514311
0.00519003
0.00520233
0.00510724
0.00504933
0.00503944
0.00503237
0.00501862
0.00500552
0.00499617
0.00498997
0.00498666
0.00498664
0.00499046
0.0049988
0.0050125
0.0050326
0.00506047
0.00509779
0.00514683
0.0052103
0.00529254
0.00539761
0.00553529
0.00571271
0.00594674
0.00627808
0.00666417
0.00734164
0.00537661
0.00508067
0.00515544
0.00518645
0.00509712
0.00504124
0.00503438
0.00502939
0.00501611
0.00500298
0.00499352
0.00498708
0.00498338
0.00498283
0.00498597
0.00499344
0.00500602
0.00502471
0.00505075
0.00508569
0.00513148
0.00519068
0.00526624
0.00536263
0.00548315
0.00563603
0.00581732
0.00603698
0.00625971
0.006479
0.00534248
0.00506244
0.00514537
0.00517927
0.00509098
0.00503597
0.00502968
0.00502493
0.00501161
0.00499823
0.00498836
0.00498134
0.00497683
0.00497521
0.00497698
0.00498272
0.00499311
0.00500902
0.00503147
0.00506175
0.00510136
0.00515218
0.00521602
0.00529562
0.00539191
0.00550763
0.00563994
0.005782
0.00593544
0.00604161
0.00528778
0.00502424
0.00511696
0.00515886
0.00507641
0.00502503
0.00502088
0.00501737
0.00500453
0.0049911
0.00498075
0.00497291
0.00496726
0.00496411
0.00496392
0.0049672
0.00497449
0.00498647
0.00500393
0.00502783
0.00505907
0.00509893
0.00514786
0.00520794
0.00527603
0.00535619
0.00543587
0.00551349
0.00557498
0.00555611
0.00525955
0.00500211
0.00509944
0.0051445
0.00506444
0.00501477
0.0050117
0.00500875
0.00499599
0.00498221
0.00497117
0.00496222
0.00495505
0.00494996
0.00494733
0.00494751
0.00495095
0.00495813
0.00496956
0.00498581
0.00500731
0.00503467
0.00506732
0.00510632
0.00514669
0.00519187
0.00522659
0.00525064
0.00525381
0.0051882
0.00523474
0.00498074
0.00508118
0.005129
0.00505141
0.00500351
0.00500144
0.00499896
0.00498618
0.00497191
0.00495992
0.00494965
0.00494069
0.0049333
0.00492779
0.00492442
0.00492348
0.00492523
0.00492994
0.00493784
0.0049489
0.00496319
0.00497937
0.00499795
0.00501277
0.00502766
0.0050259
0.00501059
0.00497189
0.00486622
0.00521601
0.0049637
0.00506602
0.00511554
0.00503942
0.00499258
0.0049911
0.00498871
0.00497561
0.00496063
0.00494751
0.00493565
0.00492464
0.0049147
0.00490603
0.00489878
0.00489309
0.00488906
0.00488673
0.00488602
0.00488653
0.00488795
0.00488852
0.00488831
0.00488087
0.00486994
0.00483922
0.00479308
0.00472285
0.0045931
0.00520133
0.00494989
0.00505328
0.0051038
0.00502854
0.00498222
0.00498093
0.00497838
0.00496473
0.00494878
0.0049343
0.00492068
0.00490747
0.00489478
0.00488274
0.00487142
0.00486084
0.00485093
0.00484151
0.00483228
0.00482261
0.00481193
0.00479825
0.00478135
0.00475496
0.00472254
0.00466912
0.00459939
0.00450662
0.00436055
0.00519016
0.00493913
0.00504302
0.00509397
0.00501903
0.00497282
0.00497136
0.00496832
0.00495385
0.00493675
0.00492077
0.00490525
0.00488967
0.0048741
0.00485863
0.00484321
0.00482774
0.00481201
0.00479571
0.00477837
0.00475922
0.00473749
0.00471113
0.00467975
0.00463759
0.00458766
0.0045167
0.00442941
0.00432003
0.00416424
0.0051822
0.00493126
0.00503524
0.00508622
0.00501116
0.00496464
0.00496266
0.00495884
0.00494334
0.00492493
0.0049073
0.00488975
0.00487174
0.00485329
0.0048344
0.00481494
0.00479471
0.0047734
0.00475061
0.00472576
0.00469798
0.00466638
0.00462902
0.00458534
0.00453027
0.00446629
0.00438204
0.00428181
0.00416078
0.00399947
0.00517734
0.00492628
0.00503002
0.00508065
0.00500507
0.00495786
0.00495506
0.00495024
0.00493351
0.00491361
0.00489423
0.00487461
0.00485417
0.00483287
0.00481064
0.0047873
0.00476255
0.00473605
0.00470728
0.00467561
0.00464013
0.00459992
0.00455316
0.00449923
0.00443378
0.00435868
0.00426458
0.00415509
0.00402609
0.00386253
0.00517572
0.00492428
0.00502748
0.00507741
0.00500093
0.00495268
0.00494875
0.0049427
0.00492457
0.00490307
0.00488187
0.00486019
0.00483737
0.00481332
0.00478792
0.00476093
0.00473201
0.00470075
0.00466659
0.00462886
0.00458665
0.00453904
0.0044844
0.00442204
0.00434832
0.0042646
0.00416334
0.00404749
0.00391341
0.00374992
0.0051776
0.00492554
0.0050278
0.00507663
0.00499885
0.0049492
0.00494387
0.00493636
0.0049167
0.00489354
0.00487052
0.00484681
0.00482169
0.00479505
0.0047667
0.00473637
0.00470367
0.00466815
0.00462922
0.0045862
0.00453822
0.00448437
0.00442321
0.00435402
0.00427382
0.0041835
0.00407722
0.00395713
0.0038202
0.00365829
0.0051836
0.00493044
0.00503125
0.00507848
0.00499898
0.00494751
0.00494048
0.00493133
0.00491003
0.00488518
0.00486037
0.00483471
0.00480745
0.00477842
0.0047474
0.00471408
0.00467803
0.00463877
0.0045957
0.00454817
0.00449532
0.0044363
0.00436983
0.0042952
0.00421
0.00411474
0.00400499
0.00388224
0.00374404
0.00358452
0.00519436
0.0049392
0.00503771
0.00508264
0.00500063
0.00494727
0.00493844
0.00492757
0.0049046
0.00487808
0.00485156
0.00482409
0.00479489
0.00476373
0.00473035
0.00469441
0.00465546
0.004613
0.00456645
0.00451514
0.00445828
0.00439505
0.00432434
0.00424544
0.00415645
0.00405757
0.00394551
0.0038212
0.00368273
0.00352597
0.00521246
0.00495394
0.00504914
0.00509075
0.0050055
0.00494914
0.00493819
0.00492522
0.00490046
0.0048723
0.00484419
0.00481511
0.0047842
0.00475119
0.00471581
0.00467766
0.00463628
0.00459117
0.00454175
0.00448737
0.00442729
0.00436073
0.00428672
0.00420456
0.00411276
0.00401129
0.00389773
0.00377262
0.00363447
0.00348054
0.00523445
0.00496944
0.00505965
0.0050977
0.00500949
0.00495067
0.00493764
0.00492344
0.00489726
0.00486772
0.00483827
0.00480783
0.00477551
0.00474099
0.00470397
0.00466403
0.00462071
0.0045735
0.00452183
0.00446505
0.00440248
0.00433337
0.00425688
0.00417231
0.00407851
0.00397524
0.00386078
0.00373537
0.00359781
0.00344656
0.00528505
0.00500356
0.00508375
0.00511341
0.0050189
0.00495588
0.00494002
0.00492403
0.00489544
0.00486447
0.00483389
0.00480236
0.00476893
0.00473325
0.00469498
0.00465369
0.00460892
0.00456015
0.00450681
0.00444828
0.0043839
0.00431297
0.00423471
0.00414847
0.00405332
0.00394891
0.00383397
0.00370861
0.00357171
0.00342278
0.00531563
0.00501802
0.00508993
0.00511657
0.00502063
0.0049562
0.00493897
0.00492088
0.00489316
0.00486197
0.00483082
0.00479863
0.00476448
0.00472804
0.00468894
0.00464677
0.00460104
0.00455124
0.00449681
0.00443714
0.00437159
0.00429948
0.00422012
0.00413285
0.00403689
0.00393186
0.00381674
0.00369176
0.00355556
0.00340869
0.00548229
0.00507891
0.00512282
0.00513062
0.00502888
0.0049623
0.00494186
0.0049218
0.00489269
0.004861
0.00482943
0.00479683
0.0047623
0.00472547
0.00468596
0.00464335
0.00459715
0.00454686
0.0044919
0.00443168
0.00436558
0.00429294
0.00421308
0.00412537
0.00402907
0.00392378
0.00380871
0.00368404
0.00354897
0.00340426
0.00775182
0.00636859
0.00569809
0.00509021
0.0042718
0.00343589
0.00257129
0.000577322
-0.000573338
-0.00574434
0.00656115
0.00555796
0.00502657
0.00449868
0.00355664
0.0029058
0.00167092
0.000329297
-0.00138161
-0.00382833
0.00613136
0.0054557
0.00497551
0.00436757
0.00368575
0.00276061
0.00189208
0.000603707
-0.000696531
-0.00239066
0.00550258
0.00493205
0.00440944
0.00389564
0.00308916
0.00249502
0.00139151
0.000560359
-0.000539169
-0.00168516
0.00512759
0.0047098
0.00426567
0.00375899
0.00317001
0.00242642
0.0016689
0.000815926
-7.19823e-05
-0.000826726
0.00475355
0.00437568
0.00390926
0.00343374
0.00282358
0.00223535
0.00149231
0.000805596
0.000206309
-0.000424345
0.0044663
0.00414999
0.00374104
0.00330349
0.00280743
0.00223512
0.00164702
0.00107951
0.000507679
0.00010571
0.00421561
0.00392537
0.00352912
0.00311782
0.00265212
0.00215153
0.00163203
0.00114049
0.000725808
0.0003356
0.00401095
0.00374881
0.00338905
0.00301138
0.00260732
0.00217351
0.00173261
0.00132083
0.000944539
0.000647019
0.00383871
0.00359528
0.0032627
0.00291075
0.00254676
0.00216369
0.00177563
0.00141283
0.00109796
0.000829994
0.00369676
0.00346944
0.00316696
0.00284522
0.00252069
0.00218292
0.00184264
0.00152522
0.00124341
0.00100611
0.00358104
0.003366
0.003089
0.00279487
0.00250063
0.00219727
0.00189284
0.00160782
0.00135406
0.001137
0.00348834
0.00328306
0.0030283
0.00275994
0.00249157
0.00221652
0.0019414
0.00168273
0.00144934
0.00124689
0.0034152
0.00321787
0.00298178
0.00273517
0.00248774
0.00223503
0.00198269
0.00174401
0.00152612
0.00133438
0.00335843
0.003168
0.00294768
0.00271869
0.00248814
0.00225317
0.00201869
0.00179542
0.00158922
0.0014053
0.00331541
0.0031312
0.00292389
0.00270868
0.00249135
0.00227018
0.00204941
0.00183768
0.00164019
0.00146188
0.00328406
0.00310539
0.00290846
0.00270371
0.0024963
0.00228561
0.00207526
0.00187206
0.00168097
0.00150652
0.00326263
0.00308882
0.00290029
0.00270342
0.00250309
0.00229991
0.00209702
0.00189969
0.00171299
0.00154059
0.00325017
0.00307955
0.00289674
0.00270513
0.00250936
0.00231109
0.00211333
0.00191972
0.00173581
0.00156333
0.00324942
0.00308308
0.00290421
0.00271567
0.00252239
0.0023269
0.00213207
0.00194097
0.00175818
0.00158605
-0.00720446
-0.00648077
-0.00485457
-0.00258736
-0.00125866
-0.000231079
0.000359765
0.000665037
0.000804135
0.000852154
0.000853136
0.000831211
0.000798965
0.000762726
0.000725561
0.000688881
0.000653261
0.000618878
0.000585711
0.000553654
0.000522581
0.000492371
0.00046291
0.000434098
0.000405842
0.000378055
0.000350666
0.000323616
0.000296859
0.000270357
0.000244076
0.000217984
0.000192047
0.000166235
0.000140522
0.000114885
8.93179e-05
6.37797e-05
3.827e-05
1.27744e-05
-0.00714653
-0.00655813
-0.00497193
-0.00263676
-0.00126119
-0.000212327
0.000371119
0.000665917
0.000797813
0.000842409
0.000842637
0.000821393
0.000790403
0.000755525
0.00071962
0.000684025
0.000649304
0.000615648
0.00058307
0.000551486
0.00052079
0.000490886
0.000461677
0.000433072
0.000404983
0.000377333
0.000350058
0.000323102
0.000296424
0.00026999
0.000243767
0.000217725
0.000191829
0.000166052
0.000140368
0.000114758
8.92152e-05
6.37023e-05
3.8216e-05
1.27516e-05
-0.00894801
-0.008251
-0.00576395
-0.00280238
-0.00129565
-0.000179961
0.000393797
0.000670187
0.000789071
0.000827541
0.000826377
0.000806183
0.000777193
0.000744482
0.000710566
0.000676668
0.000643342
0.000610812
0.000579133
0.000548268
0.000518149
0.000488708
0.000459873
0.000431571
0.000403728
0.000376279
0.00034917
0.000322354
0.000295793
0.000269458
0.000243319
0.000217347
0.00019151
0.000165784
0.000140146
0.000114578
8.9072e-05
6.35971e-05
3.81462e-05
1.27226e-05
-0.00931789
-0.00930258
-0.00628503
-0.00335833
-0.00138378
-0.000141803
0.000426063
0.000677872
0.000779101
0.000809569
0.000806697
0.000787861
0.00076136
0.000731302
0.000699795
0.00066794
0.000636288
0.000605103
0.000574494
0.000544482
0.000515046
0.000486151
0.000457757
0.000429809
0.000402255
0.000375043
0.00034813
0.000321477
0.000295054
0.000268834
0.000242793
0.000216904
0.000191137
0.000165473
0.00013989
0.000114372
8.89119e-05
6.34816e-05
3.80745e-05
1.26972e-05
-0.0136887
-0.013132
-0.00864055
-0.00415224
-0.0015164
-9.98064e-05
0.000462816
0.000680904
0.000761319
0.000784586
0.000781617
0.000765531
0.000742549
0.000715884
0.000687317
0.000657887
0.000628192
0.000598565
0.00056919
0.000540157
0.000511501
0.000483231
0.000455337
0.000427794
0.000400569
0.000373628
0.000346939
0.000320472
0.000294205
0.000268118
0.000242189
0.000216394
0.00019071
0.000165118
0.000139599
0.000114139
8.87325e-05
6.33535e-05
3.79965e-05
1.26702e-05
-0.0176041
-0.0190073
-0.0106385
-0.00500995
-0.00166045
-8.32193e-05
0.000487527
0.000669674
0.00073057
0.000750548
0.000750608
0.000739293
0.000721084
0.000698592
0.000673466
0.000646792
0.00061928
0.000591377
0.00056336
0.000535401
0.000507598
0.000480011
0.000452665
0.000425566
0.000398703
0.000372059
0.000345616
0.000319355
0.000293262
0.000267321
0.000241515
0.000215826
0.000190234
0.000164723
0.000139276
0.000113881
8.85351e-05
6.32136e-05
3.79121e-05
1.26415e-05
-0.0181791
-0.0230265
-0.011966
-0.00551061
-0.00189762
-0.000314031
0.000281704
0.000539833
0.000653571
0.000698081
0.000711209
0.000708807
0.000697248
0.000679832
0.000658615
0.000634963
0.000609798
0.000583729
0.000557149
0.000530323
0.000503423
0.000476557
0.000449792
0.000423163
0.000396686
0.00037036
0.000344181
0.000318141
0.000292234
0.000266451
0.00024078
0.000215206
0.000189714
0.000164292
0.000138924
0.000113601
8.83214e-05
6.30625e-05
3.78212e-05
1.26107e-05
-0.0126768
-0.0149694
-0.00954105
-0.00613067
-0.00287838
-0.000413045
0.000461772
0.000638128
0.000655603
0.000665324
0.000675027
0.000677845
0.000672388
0.000660148
0.00064301
0.00062252
0.000599806
0.000575645
0.000550563
0.000524919
0.000498961
0.000472852
0.000446699
0.00042057
0.000394502
0.000368516
0.000342619
0.000316817
0.000291111
0.000265498
0.000239973
0.000214525
0.000189143
0.000163818
0.000138537
0.000113294
8.80875e-05
6.28974e-05
3.77219e-05
1.25771e-05
-0.00572814
-0.00567106
-0.00527662
-0.00526193
-0.00318221
-0.00123363
-0.000276675
0.000177695
0.000422492
0.000552358
0.00061403
0.000639332
0.000645181
0.000639666
0.000627052
0.000609838
0.000589595
0.000567344
0.000543761
0.000519308
0.000494302
0.000468962
0.000443437
0.000417821
0.000392179
0.000366546
0.000340946
0.000315394
0.000289901
0.00026447
0.0002391
0.000213787
0.000188523
0.000163303
0.000138118
0.000112961
8.7834e-05
6.27184e-05
3.76144e-05
1.25409e-05
-0.00375504
-0.00513238
-0.0042312
-0.00254422
-0.000974474
-0.000106401
0.000265131
0.00041974
0.000495754
0.000550428
0.000590817
0.000614289
0.000623276
0.00062156
0.000612307
0.000597837
0.000579784
0.000559275
0.000537085
0.000513752
0.000489654
0.000465055
0.000440139
0.000415029
0.000389806
0.000364526
0.000339223
0.000313924
0.000288647
0.000263401
0.000238191
0.000213018
0.000187877
0.000162767
0.00013768
0.000112612
8.75688e-05
6.25311e-05
3.75019e-05
1.2503e-05
-0.00225775
-0.00205911
-0.00171787
-0.00171296
-0.00133535
-0.000724492
-0.000214346
0.000137779
0.000358373
0.000484024
0.000552248
0.000587529
0.000602795
0.000605177
0.000598939
0.000586821
0.000570646
0.000551654
0.0005307
0.000508379
0.000485114
0.000461207
0.000436866
0.000412239
0.000387423
0.000362486
0.000337476
0.000312427
0.000287365
0.000262305
0.000237257
0.000212226
0.000187211
0.000162213
0.000137228
0.000112252
8.72945e-05
6.23374e-05
3.73856e-05
1.24639e-05
-0.0012768
-0.00177888
-0.00177938
-0.0012049
-0.000640387
-0.000177472
0.000109485
0.000282244
0.000400277
0.000484233
0.000539513
0.000572142
0.00058811
0.000592133
0.000587665
0.000577182
0.000562437
0.000544665
0.000524743
0.000503295
0.000480767
0.000457482
0.000433671
0.000409494
0.000385061
0.000360453
0.000335726
0.000310922
0.000286072
0.000261196
0.00023631
0.000211421
0.000186533
0.000161648
0.000136766
0.000111884
8.70141e-05
6.21393e-05
3.72667e-05
1.24239e-05
-0.000650798
-0.000622414
-0.000551502
-0.000586019
-0.000412039
-0.000166512
7.14913e-05
0.000258994
0.000388738
0.000474338
0.000528816
0.000561047
0.00057729
0.000582044
0.000578532
0.000569064
0.0005553
0.000538431
0.000519318
0.000498582
0.000476678
0.000453937
0.000430598
0.00040683
0.000382753
0.000358454
0.000333995
0.000309426
0.000284781
0.000260086
0.000235359
0.000210611
0.000185849
0.000161078
0.000136299
0.000111512
8.67303e-05
6.19387e-05
3.71463e-05
1.23834e-05
-3.55519e-05
-0.000264958
-0.000400578
-0.000332689
-0.00016611
3.0652e-05
0.000194885
0.000321335
0.000416008
0.000483607
0.000528975
0.000556756
0.000571032
0.000575133
0.000571652
0.000562555
0.000549317
0.000533026
0.000514488
0.000494297
0.000472896
0.000450612
0.000427683
0.000404278
0.000380523
0.000356508
0.000332301
0.000307955
0.000283507
0.000258987
0.000234414
0.000209805
0.000185168
0.000160509
0.000135832
0.00011114
8.64459e-05
6.17375e-05
3.70255e-05
1.23426e-05
0.000172084
0.000105825
2.741e-05
-9.17604e-06
5.32247e-05
0.000165359
0.000276933
0.000370481
0.00044378
0.00049773
0.000534538
0.000557155
0.00056849
0.000571051
0.000566884
0.000557612
0.000544488
0.00052847
0.000510281
0.000490471
0.000469453
0.000447537
0.00042495
0.00040186
0.000378391
0.000354634
0.00033066
0.000306522
0.000282261
0.000257908
0.000233485
0.000209011
0.000184494
0.000159945
0.000135369
0.00011077
8.61635e-05
6.15375e-05
3.69053e-05
1.23021e-05
0.000530679
0.000402784
0.000283053
0.000216301
0.000229987
0.000292695
0.000363777
0.000426843
0.000478495
0.000517823
0.000545075
0.000561595
0.000569149
0.000569455
0.000564024
0.000554116
0.000540752
0.000524735
0.000506693
0.00048711
0.00046636
0.000444724
0.000422416
0.000399592
0.000376373
0.000352847
0.000329085
0.00030514
0.000281054
0.000256859
0.00023258
0.000208234
0.000183835
0.000159393
0.000134915
0.000110407
8.58856e-05
6.13405e-05
3.67868e-05
1.22622e-05
0.000693423
0.000592486
0.000482593
0.000401278
0.00038041
0.000405086
0.000443893
0.000481949
0.000514932
0.000540833
0.000558744
0.000568927
0.000572283
0.000569887
0.000562779
0.000551887
0.000537999
0.00052176
0.000503689
0.000484199
0.000463613
0.000442178
0.000420087
0.000397483
0.000374478
0.000351157
0.000327586
0.000303818
0.000279895
0.000255849
0.000231705
0.000207483
0.000183196
0.000158856
0.000134473
0.000110052
8.56143e-05
6.1148e-05
3.66709e-05
1.22231e-05
0.000869754
0.000760955
0.00064685
0.000552874
0.000507809
0.000504135
0.000517497
0.000534827
0.000551596
0.000565282
0.000574311
0.000578205
0.000577207
0.000571866
0.000562823
0.000550706
0.000536086
0.000519451
0.000501213
0.000481704
0.000461193
0.000439891
0.000417962
0.000395536
0.000372713
0.00034957
0.000326171
0.000302564
0.000278791
0.000254884
0.000230867
0.000206761
0.000182581
0.000158339
0.000134047
0.00010971
8.5352e-05
6.09617e-05
3.65586e-05
1.21852e-05
0.00099899
0.000889172
0.000775353
0.000675134
0.000614322
0.000589912
0.000583428
0.000583856
0.00058686
0.000589758
0.000590636
0.000588549
0.000583262
0.000574914
0.000563814
0.000550333
0.000534847
0.000517699
0.000499191
0.000479578
0.000459072
0.000437845
0.000416034
0.00039375
0.000371079
0.000348092
0.000324845
0.000301384
0.000277749
0.00025397
0.000230072
0.000206076
0.000181995
0.000157846
0.000133639
0.000109383
8.51006e-05
6.07829e-05
3.64508e-05
1.21489e-05
0.00110662
0.000993679
0.000879186
0.000774899
0.000703225
0.00066343
0.000641445
0.000628174
0.000619647
0.000613202
0.000606793
0.000599198
0.00058985
0.000578574
0.000565414
0.000550524
0.000534109
0.00051638
0.000497538
0.000477763
0.000457212
0.000436018
0.00041429
0.000392118
0.000369576
0.000346723
0.000323612
0.000300283
0.000276774
0.000253113
0.000229325
0.00020543
0.000181443
0.000157379
0.000133253
0.000109073
8.48619e-05
6.06131e-05
3.63484e-05
1.21143e-05
0.00119261
0.00107699
0.000962029
0.000855575
0.000776589
0.000725455
0.000691457
0.000667204
0.00064916
0.000634784
0.000622021
0.000609503
0.000596442
0.000582431
0.000567305
0.000551042
0.000533698
0.00051537
0.000496166
0.000476199
0.000455574
0.000434385
0.000412714
0.000390633
0.000368199
0.000345464
0.000322473
0.000299264
0.000275869
0.000252317
0.00022863
0.000204828
0.000180927
0.000156943
0.000132892
0.000108781
8.46377e-05
6.04534e-05
3.62521e-05
1.20818e-05
0.00126183
0.00114325
0.00102769
0.00092022
0.000836326
0.000776824
0.00073357
0.000700615
0.000674843
0.000653873
0.000635709
0.000618922
0.000602581
0.000586116
0.000569199
0.000551665
0.000533448
0.000514545
0.000494987
0.000474823
0.000454113
0.000432917
0.00041129
0.000389283
0.000366944
0.000344314
0.000321431
0.000298329
0.000275039
0.000251585
0.00022799
0.000204273
0.000180451
0.00015654
0.000132558
0.000108512
8.44295e-05
6.03049e-05
3.61624e-05
1.20515e-05
0.00131656
0.00119486
0.00107868
0.000971032
0.000883928
0.000818275
0.000767964
0.000728227
0.000696308
0.000669992
0.000647374
0.000627009
0.000607884
0.000589311
0.000570841
0.000552195
0.000533208
0.000513794
0.000493918
0.000473577
0.000452791
0.000431587
0.000409998
0.000388059
0.000365805
0.00034327
0.000320485
0.000297481
0.000274285
0.000250921
0.000227409
0.000203769
0.000180018
0.000156173
0.000132252
0.000108265
8.42386e-05
6.01684e-05
3.60798e-05
1.20235e-05
0.001359
0.00123379
0.0011169
0.00100964
0.000920544
0.000850433
0.000794841
0.000749951
0.000713289
0.000682788
0.000656638
0.000633408
0.000612035
0.00059175
0.000572014
0.00055246
0.000532844
0.000513016
0.000492885
0.000472408
0.000451569
0.00043037
0.000408824
0.000386951
0.000364778
0.00034233
0.000319636
0.000296722
0.000273611
0.000250327
0.000226889
0.000203318
0.00017963
0.000155844
0.000131978
0.000108042
8.40658e-05
6.00441e-05
3.60044e-05
1.19976e-05
0.00139078
0.00126208
0.00114434
0.00103755
0.000947179
0.000873853
0.000814412
0.000765752
0.000725597
0.000691991
0.000663207
0.000637834
0.000614777
0.000593213
0.000572537
0.000552314
0.000532244
0.000512126
0.000491828
0.000471273
0.000450418
0.000429245
0.000407754
0.000385952
0.000363859
0.000341496
0.000318886
0.000296053
0.000273019
0.000249807
0.000226435
0.000202924
0.000179291
0.000155556
0.000131737
0.000107846
8.39119e-05
5.99323e-05
3.59355e-05
1.19735e-05
0.00140994
0.00127834
0.00116067
0.00105499
0.000964152
0.000888768
0.000826766
0.000775587
0.000733089
0.000697402
0.00066686
0.000640065
0.000615905
0.000593516
0.000572248
0.000551623
0.000531298
0.000511034
0.000490673
0.000470113
0.000449292
0.000428179
0.000406761
0.000385042
0.000363033
0.000340753
0.000318224
0.000295467
0.000272504
0.000249355
0.000226042
0.000202583
0.000178999
0.000155308
0.000131528
0.000107675
8.3774e-05
5.98305e-05
3.58688e-05
1.19457e-05
0.0014283
0.00128983
0.00116951
0.00106386
0.000972434
0.000895715
0.000832254
0.000779725
0.000736014
0.000699273
0.000667861
0.000640384
0.000615712
0.00059296
0.000571451
0.000550682
0.000530285
0.000510005
0.000489665
0.000469152
0.000448393
0.000427351
0.000406008
0.000384364
0.000362427
0.000340216
0.00031775
0.00029505
0.000272139
0.000249037
0.000225766
0.000202345
0.000178794
0.000155134
0.000131382
0.000107555
8.36764e-05
5.97574e-05
3.58198e-05
1.19243e-05
)
;

boundaryField
{
    inlet
    {
        type            zeroGradient;
    }
    outlet
    {
        type            fixedValue;
        value           uniform 0;
    }
    lowerWall
    {
        type            zeroGradient;
    }
    upperWall
    {
        type            zeroGradient;
    }
    defaultFaces
    {
        type            empty;
    }
}


// ************************************************************************* //
