/*--------------------------------*- C++ -*----------------------------------*\
| =========                 |                                                 |
| \\      /  F ield         | OpenFOAM: The Open Source CFD Toolbox           |
|  \\    /   O peration     | Version:  2112                                  |
|   \\  /    A nd           | Website:  www.openfoam.com                      |
|    \\/     M anipulation  |                                                 |
\*---------------------------------------------------------------------------*/
FoamFile
{
    version     2.0;
    format      ascii;
    arch        "LSB;label=32;scalar=64";
    class       volVectorField;
    location    "0.03";
    object      U;
}
// * * * * * * * * * * * * * * * * * * * * * * * * * * * * * * * * * * * * * //

dimensions      [0 1 -1 0 0 0 0];

internalField   nonuniform List<vector> 
1880
(
(0.0944763 0.000675383 0)
(0.101044 0.00118399 0)
(0.0972392 0.000988476 0)
(0.0952069 0.000620528 0)
(0.0956528 0.000369042 0)
(0.0955203 0.000224557 0)
(0.0949826 0.000140313 0)
(0.0946869 9.60036e-05 0)
(0.0945534 7.68878e-05 0)
(0.0944255 7.05119e-05 0)
(0.0942825 7.07129e-05 0)
(0.0941324 7.51491e-05 0)
(0.0939699 8.3362e-05 0)
(0.0937872 9.49623e-05 0)
(0.0935774 0.000109836 0)
(0.0933324 0.00012879 0)
(0.0930439 0.000152423 0)
(0.0927011 0.000181744 0)
(0.0922906 0.000218623 0)
(0.0917948 0.000264797 0)
(0.0911935 0.00032407 0)
(0.0904479 0.000398512 0)
(0.0895442 0.000505235 0)
(0.0883365 0.000624224 0)
(0.0869805 0.000874893 0)
(0.0846978 0.00103157 0)
(0.0827606 0.00186329 0)
(0.0776611 0.00204903 0)
(0.0743587 0.00518315 0)
(0.0631576 0.00626991 0)
(0.0951511 0.000804835 0)
(0.102882 0.00128662 0)
(0.100849 0.00125843 0)
(0.0997323 0.00093443 0)
(0.100733 0.000640548 0)
(0.10093 0.000450348 0)
(0.100532 0.000328409 0)
(0.100294 0.000255852 0)
(0.100191 0.000221561 0)
(0.100078 0.000211092 0)
(0.0999413 0.000215766 0)
(0.099794 0.000231599 0)
(0.099633 0.000257229 0)
(0.099451 0.000293022 0)
(0.0992417 0.000339091 0)
(0.0989977 0.000397052 0)
(0.0987106 0.000469494 0)
(0.0983705 0.000559334 0)
(0.0979645 0.000671352 0)
(0.0974767 0.000811734 0)
(0.096886 0.000990573 0)
(0.0961682 0.00121734 0)
(0.0952798 0.00152613 0)
(0.094201 0.00190451 0)
(0.0927915 0.00254358 0)
(0.0912061 0.00313986 0)
(0.0887844 0.00491469 0)
(0.0868584 0.0055912 0)
(0.0826526 0.0113687 0)
(0.081239 0.0123561 0)
(0.0951523 0.000287871 0)
(0.102727 0.000699192 0)
(0.100656 0.000828385 0)
(0.0996075 0.000764742 0)
(0.100677 0.000634861 0)
(0.10092 0.00051254 0)
(0.100557 0.000422745 0)
(0.100346 0.00036652 0)
(0.100265 0.000339442 0)
(0.10017 0.000334673 0)
(0.100048 0.00034783 0)
(0.0999131 0.00037705 0)
(0.0997652 0.000420655 0)
(0.0995973 0.000479492 0)
(0.0994036 0.000555195 0)
(0.0991782 0.000649966 0)
(0.0989139 0.000767504 0)
(0.0986016 0.000913009 0)
(0.0982313 0.00109363 0)
(0.0977902 0.00131892 0)
(0.097261 0.00160293 0)
(0.0966282 0.00196359 0)
(0.0958574 0.00243417 0)
(0.094953 0.00304138 0)
(0.0937969 0.0038907 0)
(0.0925907 0.00495809 0)
(0.0907613 0.00669562 0)
(0.0895586 0.008482 0)
(0.086518 0.012526 0)
(0.086111 0.0148788 0)
(0.0951478 0.000250907 0)
(0.102542 0.000631563 0)
(0.100403 0.000808254 0)
(0.0993648 0.00079598 0)
(0.100486 0.000695479 0)
(0.100788 0.00058866 0)
(0.100474 0.000508681 0)
(0.100302 0.000459513 0)
(0.10025 0.000438454 0)
(0.100178 0.000441737 0)
(0.100075 0.000465192 0)
(0.0999583 0.000507478 0)
(0.0998275 0.000568793 0)
(0.0996783 0.000649717 0)
(0.0995059 0.000752191 0)
(0.099305 0.000879941 0)
(0.0990703 0.00103756 0)
(0.0987952 0.00123166 0)
(0.0984715 0.0014711 0)
(0.0980901 0.00176739 0)
(0.0976386 0.00213724 0)
(0.0971123 0.0026016 0)
(0.096477 0.00319542 0)
(0.0957838 0.0039477 0)
(0.0948555 0.00495867 0)
(0.094127 0.00619729 0)
(0.0926347 0.00806983 0)
(0.0924483 0.0100007 0)
(0.0902245 0.0137391 0)
(0.0912381 0.0165065 0)
(0.0951483 0.000138706 0)
(0.102474 0.000442446 0)
(0.100292 0.000636838 0)
(0.0992486 0.000689444 0)
(0.100384 0.000654895 0)
(0.100709 0.000595541 0)
(0.100422 0.00054599 0)
(0.100276 0.000517591 0)
(0.100248 0.000511054 0)
(0.100197 0.000526254 0)
(0.100114 0.00056266 0)
(0.100018 0.000619266 0)
(0.0999084 0.000696979 0)
(0.0997818 0.000797705 0)
(0.0996349 0.000923877 0)
(0.0994647 0.00107993 0)
(0.0992668 0.00127124 0)
(0.0990364 0.00150503 0)
(0.0987683 0.00179121 0)
(0.0984578 0.00214256 0)
(0.0980968 0.00257608 0)
(0.0976882 0.0031136 0)
(0.0972049 0.0037859 0)
(0.0967189 0.0046283 0)
(0.0960487 0.00570259 0)
(0.0956943 0.0070418 0)
(0.0946196 0.00880689 0)
(0.0950616 0.0108586 0)
(0.0934152 0.0138561 0)
(0.0950703 0.0165563 0)
(0.0951488 0.000103042 0)
(0.102433 0.000360557 0)
(0.100222 0.000554024 0)
(0.0991721 0.000630427 0)
(0.100314 0.000626365 0)
(0.100655 0.000595206 0)
(0.10039 0.000566991 0)
(0.100265 0.000555041 0)
(0.100259 0.000563048 0)
(0.100229 0.000591011 0)
(0.100168 0.000639671 0)
(0.100093 0.000709722 0)
(0.100006 0.000802313 0)
(0.0999052 0.000920011 0)
(0.0997881 0.00106603 0)
(0.0996524 0.00124473 0)
(0.0994954 0.0014621 0)
(0.0993152 0.00172604 0)
(0.099109 0.00204647 0)
(0.098875 0.00243588 0)
(0.0986095 0.00291051 0)
(0.0983221 0.00349111 0)
(0.0979911 0.00420379 0)
(0.0977007 0.00508044 0)
(0.0972691 0.00616025 0)
(0.0972194 0.00748786 0)
(0.0965037 0.00911915 0)
(0.0973397 0.0110546 0)
(0.096226 0.0135122 0)
(0.0981978 0.0160418 0)
(0.0951492 6.973e-05 0)
(0.102413 0.000283068 0)
(0.100184 0.000470082 0)
(0.0991281 0.000563247 0)
(0.100275 0.000583071 0)
(0.100627 0.000575272 0)
(0.100376 0.000567778 0)
(0.10027 0.000572401 0)
(0.100284 0.000594172 0)
(0.100274 0.000634802 0)
(0.100233 0.000695268 0)
(0.10018 0.000777361 0)
(0.100119 0.000882847 0)
(0.100046 0.00101413 0)
(0.0999596 0.00117512 0)
(0.0998607 0.00137054 0)
(0.0997481 0.00160661 0)
(0.0996208 0.00189087 0)
(0.0994782 0.00223254 0)
(0.0993218 0.00264356 0)
(0.0991519 0.00313877 0)
(0.0989815 0.0037362 0)
(0.0987938 0.0044559 0)
(0.0986756 0.00532603 0)
(0.0984569 0.00636467 0)
(0.0986407 0.00762765 0)
(0.0982353 0.00909089 0)
(0.0993212 0.0108572 0)
(0.0986208 0.0128798 0)
(0.100758 0.0151005 0)
(0.0951495 4.60686e-05 0)
(0.102402 0.000221157 0)
(0.100164 0.000396621 0)
(0.0991052 0.000497457 0)
(0.100255 0.000533938 0)
(0.100617 0.000543838 0)
(0.100381 0.000552976 0)
(0.10029 0.000572463 0)
(0.100321 0.000606733 0)
(0.10033 0.000658622 0)
(0.10031 0.000729756 0)
(0.10028 0.000821835 0)
(0.100243 0.000937007 0)
(0.100197 0.00107824 0)
(0.100145 0.00124979 0)
(0.100084 0.0014562 0)
(0.100016 0.00170307 0)
(0.0999411 0.00199765 0)
(0.0998617 0.00234875 0)
(0.0997812 0.00276713 0)
(0.0997021 0.00326501 0)
(0.0996393 0.00385715 0)
(0.0995805 0.00455834 0)
(0.0996095 0.00539257 0)
(0.0995727 0.00636252 0)
(0.0999306 0.0075275 0)
(0.0997854 0.00881353 0)
(0.101002 0.0103848 0)
(0.100651 0.0120193 0)
(0.102801 0.0139555 0)
(0.0951496 2.6244e-05 0)
(0.102397 0.000165274 0)
(0.100154 0.00032658 0)
(0.0990966 0.000429759 0)
(0.100252 0.000477743 0)
(0.100624 0.000502 0)
(0.100399 0.000524534 0)
(0.100323 0.000556239 0)
(0.10037 0.000601905 0)
(0.100397 0.000663803 0)
(0.100396 0.000743344 0)
(0.100388 0.000842697 0)
(0.100375 0.000964749 0)
(0.100358 0.0011127 0)
(0.100338 0.00129 0)
(0.100314 0.00150097 0)
(0.10029 0.0017513 0)
(0.100266 0.00204777 0)
(0.100248 0.00239799 0)
(0.100238 0.00281096 0)
(0.100242 0.00329647 0)
(0.100275 0.00386636 0)
(0.100329 0.00453084 0)
(0.100479 0.00530947 0)
(0.100595 0.00619438 0)
(0.101075 0.00724365 0)
(0.101147 0.00835657 0)
(0.102408 0.00972328 0)
(0.102344 0.0110364 0)
(0.104436 0.0126808 0)
(0.0951496 8.61042e-06 0)
(0.102394 0.000112211 0)
(0.100153 0.000256167 0)
(0.0990988 0.000358169 0)
(0.100261 0.00041369 0)
(0.100642 0.000448978 0)
(0.100429 0.000483408 0)
(0.100366 0.000526154 0)
(0.100428 0.000581071 0)
(0.100471 0.000650572 0)
(0.100489 0.000736553 0)
(0.100502 0.000841283 0)
(0.100513 0.000967342 0)
(0.100523 0.00111768 0)
(0.100533 0.00129574 0)
(0.100545 0.00150598 0)
(0.100563 0.00175361 0)
(0.100588 0.00204427 0)
(0.100625 0.0023844 0)
(0.10068 0.00278136 0)
(0.100757 0.00324302 0)
(0.100874 0.0037786 0)
(0.101024 0.00439428 0)
(0.101272 0.00510497 0)
(0.101511 0.0058973 0)
(0.102075 0.00682256 0)
(0.102319 0.007776 0)
(0.103572 0.00893806 0)
(0.103737 0.00999116 0)
(0.105711 0.0113603 0)
(0.0951494 -8.43463e-06 0)
(0.102394 5.87812e-05 0)
(0.100157 0.000181828 0)
(0.0991097 0.000279387 0)
(0.100281 0.000340739 0)
(0.100673 0.000385924 0)
(0.10047 0.000430658 0)
(0.100419 0.000482711 0)
(0.100494 0.000545295 0)
(0.100552 0.000620909 0)
(0.100587 0.000711446 0)
(0.100618 0.000818671 0)
(0.100652 0.000945335 0)
(0.100687 0.00109443 0)
(0.100726 0.00126928 0)
(0.100772 0.001474 0)
(0.100828 0.001713 0)
(0.100897 0.00199104 0)
(0.100985 0.0023136 0)
(0.101097 0.0026866 0)
(0.101239 0.00311595 0)
(0.101426 0.00360852 0)
(0.101655 0.00416752 0)
(0.101981 0.00480384 0)
(0.102317 0.00550141 0)
(0.102935 0.00630407 0)
(0.103314 0.00711083 0)
(0.104524 0.00808452 0)
(0.104872 0.008922 0)
(0.106699 0.0100449 0)
(0.0951491 -2.60824e-05 0)
(0.102397 1.86563e-06 0)
(0.100168 0.000100715 0)
(0.0991294 0.000192027 0)
(0.100311 0.000258365 0)
(0.100713 0.000312778 0)
(0.100521 0.000366961 0)
(0.10048 0.000427367 0)
(0.100566 0.000496593 0)
(0.100638 0.000576588 0)
(0.100687 0.000669297 0)
(0.100735 0.000776523 0)
(0.100788 0.000900913 0)
(0.100847 0.00104538 0)
(0.100912 0.0012131 0)
(0.100989 0.00140767 0)
(0.10108 0.00163287 0)
(0.101188 0.00189286 0)
(0.10132 0.00219214 0)
(0.101482 0.0025352 0)
(0.101679 0.00292626 0)
(0.101925 0.00337009 0)
(0.102219 0.00386794 0)
(0.102605 0.00442753 0)
(0.103016 0.00503225 0)
(0.103666 0.00571765 0)
(0.104147 0.00639339 0)
(0.105295 0.00719573 0)
(0.105786 0.00786184 0)
(0.107451 0.00876195 0)
(0.0951489 -4.58747e-05 0)
(0.102403 -6.19519e-05 0)
(0.100185 9.49768e-06 0)
(0.0991586 9.33764e-05 0)
(0.100352 0.000165231 0)
(0.100764 0.000229857 0)
(0.10058 0.000293913 0)
(0.100548 0.00036224 0)
(0.100643 0.000436997 0)
(0.100725 0.000519702 0)
(0.100787 0.000612264 0)
(0.10085 0.000716987 0)
(0.10092 0.000836334 0)
(0.100999 0.000973032 0)
(0.101088 0.00113009 0)
(0.101192 0.00131067 0)
(0.101313 0.0015179 0)
(0.101456 0.00175534 0)
(0.101627 0.00202665 0)
(0.101831 0.00233519 0)
(0.102074 0.00268394 0)
(0.102368 0.00307597 0)
(0.102713 0.00351101 0)
(0.103145 0.00399432 0)
(0.103612 0.00451001 0)
(0.104279 0.00508618 0)
(0.104835 0.00564543 0)
(0.105914 0.00629707 0)
(0.106512 0.00682517 0)
(0.108018 0.00753181 0)
(0.0951484 -6.94509e-05 0)
(0.102414 -0.000136208 0)
(0.100213 -9.43405e-05 0)
(0.0992006 -1.63961e-05 0)
(0.100406 6.33509e-05 0)
(0.100827 0.000139854 0)
(0.100649 0.000214291 0)
(0.100622 0.000290029 0)
(0.100723 0.000369034 0)
(0.100813 0.000452687 0)
(0.100884 0.00054308 0)
(0.10096 0.000642856 0)
(0.101044 0.000754418 0)
(0.10114 0.000880391 0)
(0.10125 0.00102355 0)
(0.101377 0.00118666 0)
(0.101524 0.00137255 0)
(0.101697 0.00158406 0)
(0.1019 0.00182396 0)
(0.102139 0.00209478 0)
(0.10242 0.00239852 0)
(0.102752 0.00273708 0)
(0.103137 0.00310932 0)
(0.103603 0.00351863 0)
(0.104112 0.00395053 0)
(0.104786 0.0044266 0)
(0.105397 0.00488275 0)
(0.106407 0.00540394 0)
(0.107083 0.00581974 0)
(0.108442 0.00636391 0)
(0.0951479 -0.000103142 0)
(0.102434 -0.000230862 0)
(0.100259 -0.00022205 0)
(0.099262 -0.000147029 0)
(0.100477 -5.36656e-05 0)
(0.100903 3.96276e-05 0)
(0.100727 0.000128559 0)
(0.100702 0.000213074 0)
(0.100805 0.000295498 0)
(0.100899 0.000378444 0)
(0.100977 0.000464625 0)
(0.101061 0.000556936 0)
(0.101158 0.000658027 0)
(0.101268 0.000770531 0)
(0.101394 0.000896996 0)
(0.101541 0.00103977 0)
(0.10171 0.00120144 0)
(0.101908 0.00138432 0)
(0.102138 0.00159034 0)
(0.102405 0.0018214 0)
(0.102716 0.00207873 0)
(0.103078 0.00236338 0)
(0.103495 0.00267382 0)
(0.103985 0.00301215 0)
(0.104524 0.00336569 0)
(0.105198 0.00375062 0)
(0.105846 0.00411546 0)
(0.106793 0.00452441 0)
(0.107524 0.00484738 0)
(0.108754 0.00525877 0)
(0.095147 -0.000137866 0)
(0.102473 -0.000328161 0)
(0.100331 -0.000347084 0)
(0.0993531 -0.000269851 0)
(0.100575 -0.000160207 0)
(0.101001 -4.97229e-05 0)
(0.10082 5.0718e-05 0)
(0.100788 0.000139896 0)
(0.100888 0.0002221 0)
(0.100982 0.000301182 0)
(0.101063 0.000380254 0)
(0.101153 0.000462317 0)
(0.101258 0.000550268 0)
(0.101379 0.00064669 0)
(0.101519 0.000753978 0)
(0.101681 0.00087418 0)
(0.101869 0.00100933 0)
(0.102086 0.00116131 0)
(0.102337 0.00133153 0)
(0.102628 0.00152137 0)
(0.102962 0.00173163 0)
(0.103347 0.00196277 0)
(0.103786 0.0022131 0)
(0.104294 0.00248369 0)
(0.104854 0.00276406 0)
(0.105524 0.00306612 0)
(0.106199 0.00335009 0)
(0.107091 0.00366253 0)
(0.10786 0.0039074 0)
(0.108979 0.00421096 0)
(0.0951468 -0.000250311 0)
(0.102544 -0.000542345 0)
(0.10045 -0.000580634 0)
(0.0994808 -0.000464759 0)
(0.100697 -0.000303353 0)
(0.101111 -0.000154921 0)
(0.100916 -3.39749e-05 0)
(0.100873 6.51721e-05 0)
(0.100966 0.000149219 0)
(0.101057 0.000223101 0)
(0.101138 0.00029245 0)
(0.101231 0.000361663 0)
(0.101342 0.000434039 0)
(0.101472 0.000512053 0)
(0.101622 0.000597898 0)
(0.101796 0.000693487 0)
(0.101998 0.000800348 0)
(0.10223 0.000919823 0)
(0.102498 0.00105307 0)
(0.102805 0.00120098 0)
(0.103158 0.00136396 0)
(0.10356 0.00154215 0)
(0.104016 0.0017341 0)
(0.104535 0.00194023 0)
(0.10511 0.00215245 0)
(0.105774 0.00237869 0)
(0.106466 0.00259004 0)
(0.107312 0.00281821 0)
(0.108106 0.00299626 0)
(0.109136 0.00321059 0)
(0.0951508 -0.000287354 0)
(0.102727 -0.000633017 0)
(0.100705 -0.000660139 0)
(0.0997342 -0.000520325 0)
(0.100909 -0.000345818 0)
(0.101274 -0.000192905 0)
(0.10104 -7.29951e-05 0)
(0.100971 1.95239e-05 0)
(0.101045 9.12736e-05 0)
(0.101124 0.000151245 0)
(0.101201 0.000205519 0)
(0.101294 0.000258209 0)
(0.101408 0.000312223 0)
(0.101543 0.000369714 0)
(0.1017 0.000432354 0)
(0.101883 0.000501625 0)
(0.102094 0.000578718 0)
(0.102338 0.000664502 0)
(0.102618 0.000759839 0)
(0.102938 0.000865351 0)
(0.103303 0.000981159 0)
(0.103717 0.00110723 0)
(0.104184 0.00124249 0)
(0.104711 0.00138682 0)
(0.105295 0.0015348 0)
(0.105954 0.00169084 0)
(0.106656 0.00183659 0)
(0.107467 0.00198869 0)
(0.108277 0.00211004 0)
(0.10924 0.00224503 0)
(0.09515 -0.000803543 0)
(0.102882 -0.00124276 0)
(0.100902 -0.00115086 0)
(0.0998663 -0.000780815 0)
(0.100977 -0.00046126 0)
(0.101303 -0.000253853 0)
(0.101041 -0.000114588 0)
(0.10095 -2.12191e-05 0)
(0.101013 3.92895e-05 0)
(0.101087 8.31219e-05 0)
(0.101162 0.000119729 0)
(0.101256 0.000153587 0)
(0.101372 0.000187195 0)
(0.101511 0.000222382 0)
(0.101674 0.000260414 0)
(0.101863 0.000302208 0)
(0.102082 0.000348561 0)
(0.102334 0.000400022 0)
(0.102623 0.000457031 0)
(0.102953 0.000519963 0)
(0.103327 0.000588878 0)
(0.103751 0.000663652 0)
(0.104227 0.000743647 0)
(0.10476 0.000828491 0)
(0.10535 0.000915167 0)
(0.106009 0.0010056 0)
(0.106714 0.00109109 0)
(0.107511 0.00117413 0)
(0.108311 0.00124763 0)
(0.109268 0.001305 0)
(0.0944747 -0.000674972 0)
(0.101046 -0.00117174 0)
(0.0972968 -0.000959578 0)
(0.0953476 -0.00057877 0)
(0.095904 -0.000319094 0)
(0.0958983 -0.000168648 0)
(0.0954954 -7.78678e-05 0)
(0.0953463 -2.49619e-05 0)
(0.0953758 5.04558e-06 0)
(0.0954313 2.34859e-05 0)
(0.0954965 3.7141e-05 0)
(0.0955847 4.88734e-05 0)
(0.0956971 6.00031e-05 0)
(0.0958326 7.14029e-05 0)
(0.0959921 8.36634e-05 0)
(0.0961778 9.71107e-05 0)
(0.0963925 0.000111972 0)
(0.0966392 0.000128437 0)
(0.0969216 0.000146644 0)
(0.0972435 0.000166715 0)
(0.0976083 0.000188631 0)
(0.09802 0.000212277 0)
(0.0984819 0.000237483 0)
(0.0989977 0.000264091 0)
(0.099568 0.000291177 0)
(0.100199 0.00031889 0)
(0.100878 0.000346095 0)
(0.101633 0.000369044 0)
(0.10239 0.000393362 0)
(0.103283 0.000402632 0)
(0.0551154 0.0194005 0)
(0.0739607 0.0264509 0)
(0.0790878 0.030507 0)
(0.086721 0.0347839 1.47572e-21)
(0.0911263 0.0356368 1.2733e-21)
(0.101665 0.0480506 0)
(0.104717 0.024587 8.12149e-22)
(0.126222 0.0814492 1.87952e-22)
(0.118066 0.0107375 3.56738e-22)
(0.193163 0.0618404 0)
(0.0761852 0.027331 0)
(0.0868651 0.0340357 0)
(0.0895456 0.0385776 0)
(0.0977344 0.0442883 0)
(0.0973671 0.0450581 0)
(0.120026 0.0514611 4.34549e-22)
(0.10387 0.0527795 2.81394e-22)
(0.143585 0.0509368 7.59511e-23)
(0.149844 0.0553932 -3.38735e-22)
(0.14695 0.0510779 -5.39411e-22)
(0.0825209 0.0236269 0)
(0.0896477 0.0263936 0)
(0.0946448 0.0289559 0)
(0.0996126 0.0330907 0)
(0.109424 0.0310884 0)
(0.111642 0.0422294 -4.34549e-22)
(0.130811 0.0258209 -2.81393e-22)
(0.131168 0.0426347 -7.59523e-23)
(0.151186 0.0324811 1.7454e-22)
(0.162363 0.00603979 5.39422e-22)
(0.0899612 0.0230903 -7.12056e-22)
(0.0956316 0.0267868 0)
(0.0991924 0.0305542 -6.12092e-22)
(0.105299 0.0335571 -5.54879e-22)
(0.108952 0.036367 -4.66491e-22)
(0.119404 0.0356242 0)
(0.123308 0.0394515 0)
(0.132265 0.0327927 -1.12038e-22)
(0.145851 0.0263698 5.13299e-23)
(0.149827 0.025883 2.17877e-22)
(0.0942612 0.0211392 7.12062e-22)
(0.0982571 0.0233736 0)
(0.102604 0.0252167 6.12095e-22)
(0.107031 0.0272916 5.54883e-22)
(0.113509 0.026457 4.66498e-22)
(0.119022 0.0292094 0)
(0.127588 0.0227289 0)
(0.135026 0.0239192 1.12039e-22)
(0.141136 0.0185218 -5.13303e-23)
(0.146579 0.00177616 -2.17878e-22)
(0.0982257 0.0193602 0)
(0.101723 0.0216108 -5.85934e-22)
(0.105646 0.0235493 0)
(0.110119 0.0250356 -4.88383e-22)
(0.114626 0.0259191 0)
(0.120526 0.0254014 0)
(0.126027 0.0244868 0)
(0.130817 0.0211872 1.53461e-22)
(0.137899 0.014372 0)
(0.138866 0.0101566 0)
(0.101082 0.0175752 5.81564e-22)
(0.103857 0.0191703 1.14092e-21)
(0.107659 0.0202214 5.12969e-22)
(0.111441 0.0210117 4.88385e-22)
(0.115986 0.0205644 0)
(0.120848 0.0201676 -3.36416e-22)
(0.125798 0.0174337 0)
(0.130712 0.0143587 -1.53462e-22)
(0.134088 0.0101065 0)
(0.136025 0.00195469 0)
(0.103416 0.0157448 -5.81566e-22)
(0.105846 0.017037 -5.5499e-22)
(0.109343 0.0178941 -5.1297e-22)
(0.112812 0.0184108 0)
(0.116575 0.0183869 0)
(0.120719 0.0174683 3.36417e-22)
(0.124588 0.015495 0)
(0.127862 0.0126134 0)
(0.130747 0.00809991 0)
(0.131487 0.00350484 0)
(0.105185 0.0139692 0)
(0.107245 0.0149307 -5.04734e-22)
(0.110478 0.0154317 0)
(0.11362 0.0156227 -4.293e-22)
(0.116866 0.0151942 0)
(0.120274 0.0140288 0)
(0.123452 0.0119374 -2.77079e-22)
(0.126283 0.00912288 -2.22542e-22)
(0.128166 0.00572472 0)
(0.12886 0.00136714 -1.28118e-22)
(0.106561 0.0122609 0)
(0.108395 0.0130104 5.04735e-22)
(0.11133 0.013386 0)
(0.114114 0.0133686 4.29301e-22)
(0.116838 0.0128506 0)
(0.119641 0.0117154 0)
(0.122206 0.00993283 2.7708e-22)
(0.12436 0.00755651 2.22543e-22)
(0.125733 0.00460671 0)
(0.126181 0.00131679 1.28119e-22)
(0.107609 0.0106583 2.43757e-22)
(0.109268 0.0112386 0)
(0.111883 0.0114546 0)
(0.114318 0.0112462 2.04428e-22)
(0.116629 0.0106369 0)
(0.118952 0.00953009 0)
(0.121055 0.00792156 0)
(0.122812 0.0058317 1.27528e-22)
(0.123845 0.00342208 0)
(0.124218 0.000755511 0)
(0.108402 0.00917329 -6.98068e-24)
(0.109935 0.00961574 0)
(0.112234 0.00971478 2.15815e-22)
(0.114342 0.00941893 -3.09094e-24)
(0.116312 0.00880819 0)
(0.118253 0.00780412 0)
(0.119993 0.0064267 1.51414e-22)
(0.121416 0.00467466 -1.27528e-22)
(0.122218 0.00268812 1.17731e-22)
(0.122524 0.000552814 1.03392e-22)
(0.108993 0.00780668 -5.55442e-24)
(0.110419 0.00812754 0)
(0.112424 0.0081311 -3.78263e-24)
(0.11425 0.0077967 -2.16356e-24)
(0.115948 0.00721436 1.8556e-22)
(0.117592 0.00631954 -1.70699e-22)
(0.119055 0.00514565 3.54815e-24)
(0.120239 0.00367628 1.39483e-22)
(0.120896 0.00205393 7.22561e-24)
(0.121173 0.000339585 8.5604e-24)
(0.109426 0.00654638 -2.31223e-22)
(0.110754 0.00676432 0)
(0.112504 0.00670421 -2.12032e-22)
(0.114098 0.00637194 -1.99174e-22)
(0.115578 0.00584564 -1.8556e-22)
(0.116991 0.00507255 3.42803e-22)
(0.118243 0.00409352 -1.54962e-22)
(0.119247 0.00288347 -1.39484e-22)
(0.119809 0.00157107 -1.24957e-22)
(0.120068 0.000199611 -1.11953e-22)
(0.109734 0.00537691 0)
(0.110972 0.00551411 0)
(0.11251 0.00541808 0)
(0.11392 0.00510875 0)
(0.115228 0.00465083 0)
(0.116464 0.00400015 -1.72104e-22)
(0.117557 0.00319878 0)
(0.11843 0.00221721 0)
(0.118932 0.00117058 0)
(0.11918 8.47013e-05 0)
(0.109948 0.00428316 0)
(0.111104 0.00436254 0)
(0.112471 0.00425323 0)
(0.113739 0.00397979 0)
(0.114916 0.00359687 0)
(0.116017 0.00306724 -8.73482e-23)
(0.116993 0.00242827 0)
(0.11777 0.00165146 0)
(0.118235 0.00083526 0)
(0.118476 -8.0115e-06 0)
(0.110091 0.00325097 0)
(0.111176 0.00329208 0)
(0.112409 0.00318424 1.02465e-22)
(0.113572 0.00295325 0)
(0.114652 0.00264702 9.31543e-23)
(0.115655 0.0022359 8.73483e-23)
(0.116545 0.00174729 0)
(0.117252 0.00115869 7.67638e-23)
(0.117696 0.000544733 0)
(0.117932 -8.34367e-05 0)
(0.110179 0.00226278 0)
(0.111205 0.00228186 0)
(0.112334 0.00219042 -1.02465e-22)
(0.113421 0.00201047 0)
(0.114435 0.00178331 -9.31543e-23)
(0.115369 0.00148677 0)
(0.1162 0.00113422 0)
(0.116854 0.000719939 -7.67638e-23)
(0.11729 0.000284145 0)
(0.117505 -0.000149408 0)
(0.110128 0.00130896 -2.72119e-23)
(0.111068 0.00129586 -2.64713e-23)
(0.112091 0.00121156 -2.5582e-23)
(0.113101 0.00108003 0)
(0.114047 0.000927521 -2.34394e-23)
(0.114899 0.000743344 0)
(0.11566 0.000525076 -2.09565e-23)
(0.116224 0.000277126 0)
(0.116649 2.94202e-06 -1.83418e-23)
(0.116716 -0.000242107 -1.70742e-23)
(0.104071 0.000385726 2.7209e-23)
(0.104823 0.00033604 2.64684e-23)
(0.105562 0.000267583 2.5579e-23)
(0.106224 0.00019794 0)
(0.10677 0.000131088 2.34363e-23)
(0.107177 6.28667e-05 0)
(0.107451 -1.52001e-05 2.09534e-23)
(0.107482 -9.91016e-05 0)
(0.107374 -0.00019813 1.83388e-23)
(0.106852 -0.000276351 1.70712e-23)
(-0.00744895 -0.00361524 0)
(-0.0086098 -0.00278658 0)
(-0.00051113 -0.00332418 0)
(0.0104651 -0.00475297 0)
(0.0267173 -0.00461381 0)
(0.0397985 -0.00405791 0)
(0.0510296 -0.00325797 0)
(0.0598489 -0.00249509 0)
(0.0665495 -0.00187297 0)
(0.0715894 -0.00140116 0)
(0.0753876 -0.00105514 0)
(0.0782757 -0.000804071 0)
(0.0804994 -0.000621381 0)
(0.0822345 -0.000486902 0)
(0.0836056 -0.000386343 0)
(0.0847015 -0.000310012 0)
(0.0855863 -0.000251206 0)
(0.0863067 -0.000205201 0)
(0.0868974 -0.000168767 0)
(0.0873849 -0.000139633 0)
(0.0877893 -0.000116075 0)
(0.0881261 -9.68242e-05 0)
(0.0884077 -8.10169e-05 0)
(0.0886436 -6.80048e-05 0)
(0.0888418 -5.72261e-05 0)
(0.0890088 -4.82317e-05 0)
(0.0891496 -4.06963e-05 0)
(0.0892685 -3.43657e-05 0)
(0.0893691 -2.90269e-05 0)
(0.089454 -2.45125e-05 0)
(0.0895257 -2.069e-05 0)
(0.0895861 -1.74482e-05 0)
(0.089637 -1.46809e-05 0)
(0.08968 -1.23134e-05 0)
(0.0897157 -1.02678e-05 0)
(0.0897459 -8.46162e-06 0)
(0.08977 -7.03239e-06 0)
(0.0897911 -5.33345e-06 0)
(0.089805 -4.81327e-06 0)
(0.0898225 -2.78627e-06 0)
(-0.00640927 0.016381 0)
(-0.00917223 -0.00130832 0)
(-0.000357368 -0.00917326 0)
(0.0121404 -0.015868 0)
(0.030857 -0.015679 0)
(0.0455361 -0.0137692 0)
(0.0579005 -0.0110752 0)
(0.0674655 -0.00852968 0)
(0.0746913 -0.00645328 0)
(0.0801326 -0.00486914 0)
(0.0842546 -0.00369635 0)
(0.0874108 -0.00283604 0)
(0.0898582 -0.00220314 0)
(0.0917803 -0.00173293 0)
(0.0933073 -0.00137888 0)
(0.0945332 -0.00110856 0)
(0.0955263 -0.000899317 0)
(0.096337 -0.000735175 0)
(0.0970032 -0.000604904 0)
(0.0975538 -0.000500486 0)
(0.0980111 -0.000416003 0)
(0.0983925 -0.000347083 0)
(0.0987115 -0.000290524 0)
(0.098979 -0.000243883 0)
(0.0992038 -0.000205203 0)
(0.0993932 -0.000172943 0)
(0.0995531 -0.000145927 0)
(0.0996882 -0.000123233 0)
(0.0998024 -0.000104119 0)
(0.099899 -8.79784e-05 0)
(0.0999805 -7.43153e-05 0)
(0.100049 -6.27108e-05 0)
(0.100107 -5.28076e-05 0)
(0.100156 -4.43069e-05 0)
(0.100197 -3.70151e-05 0)
(0.100231 -3.05208e-05 0)
(0.100259 -2.54779e-05 0)
(0.100283 -1.93579e-05 0)
(0.100299 -1.76025e-05 0)
(0.100319 -1.03072e-05 0)
(-0.0180046 0.00387225 0)
(-0.0262932 -0.00864622 0)
(-0.00864308 -0.0198912 0)
(0.00862614 -0.0289385 0)
(0.031507 -0.0279651 0)
(0.047499 -0.0238444 0)
(0.0602038 -0.0188052 0)
(0.0695277 -0.0143186 0)
(0.0763569 -0.0107763 0)
(0.0814295 -0.0081237 0)
(0.0852631 -0.00617787 0)
(0.0882107 -0.00475443 0)
(0.0905127 -0.00370587 0)
(0.0923347 -0.0029243 0)
(0.0937931 -0.00233351 0)
(0.0949714 -0.0018805 0)
(0.0959312 -0.00152847 0)
(0.0967183 -0.00125147 0)
(0.0973674 -0.00103102 0)
(0.0979056 -0.000853848 0)
(0.0983538 -0.000710254 0)
(0.0987282 -0.000593019 0)
(0.0990418 -0.000496707 0)
(0.0993052 -0.000417151 0)
(0.0995269 -0.000351091 0)
(0.0997138 -0.000295971 0)
(0.0998718 -0.000249802 0)
(0.100005 -0.000211011 0)
(0.100118 -0.000178333 0)
(0.100214 -0.000150736 0)
(0.100294 -0.000127367 0)
(0.100363 -0.000107504 0)
(0.10042 -9.05461e-05 0)
(0.100469 -7.59808e-05 0)
(0.100509 -6.3506e-05 0)
(0.100543 -5.23962e-05 0)
(0.100571 -4.37735e-05 0)
(0.100595 -3.33103e-05 0)
(0.10061 -3.02743e-05 0)
(0.100631 -1.77167e-05 0)
(-0.00856239 0.0539482 0)
(-0.0316989 -0.00302531 0)
(-0.0122826 -0.0314737 0)
(0.00827792 -0.0447184 0)
(0.0343288 -0.0424857 0)
(0.0517537 -0.0347084 0)
(0.064419 -0.0265355 0)
(0.0730206 -0.0198087 0)
(0.0790255 -0.0147567 0)
(0.0833976 -0.0110882 0)
(0.0866999 -0.0084405 0)
(0.0892636 -0.00651594 0)
(0.0912928 -0.00509862 0)
(0.092921 -0.00403895 0)
(0.0942404 -0.00323435 0)
(0.0953179 -0.00261434 0)
(0.0962033 -0.00213026 0)
(0.0969348 -0.00174783 0)
(0.0975417 -0.00144243 0)
(0.0980474 -0.00119624 0)
(0.0984702 -0.000996235 0)
(0.0988246 -0.000832631 0)
(0.0991223 -0.000697968 0)
(0.0993729 -0.000586524 0)
(0.0995843 -0.000493863 0)
(0.0997628 -0.000416503 0)
(0.0999138 -0.000351686 0)
(0.100042 -0.000297203 0)
(0.10015 -0.000251275 0)
(0.100241 -0.000212458 0)
(0.100319 -0.000179556 0)
(0.100384 -0.000151567 0)
(0.100439 -0.000127668 0)
(0.100486 -0.000107155 0)
(0.100525 -8.96079e-05 0)
(0.100558 -7.39823e-05 0)
(0.100584 -6.18486e-05 0)
(0.100607 -4.71221e-05 0)
(0.100622 -4.27878e-05 0)
(0.100642 -2.50144e-05 0)
(-0.0425198 0.0216169 0)
(-0.0515344 -0.00531237 0)
(-0.011119 -0.0557727 0)
(0.0144663 -0.0648776 0)
(0.0419451 -0.0589029 0)
(0.0593885 -0.0456915 0)
(0.0708388 -0.0336288 0)
(0.0779148 -0.0245043 0)
(0.0825787 -0.0180444 0)
(0.0859411 -0.0135229 0)
(0.0885301 -0.0103195 0)
(0.0905986 -0.0080053 0)
(0.0922828 -0.00629861 0)
(0.0936674 -0.00501588 0)
(0.0948121 -0.00403552 0)
(0.095762 -0.00327507 0)
(0.0965526 -0.00267758 0)
(0.0972126 -0.00220294 0)
(0.0977649 -0.00182217 0)
(0.0982282 -0.00151404 0)
(0.0986177 -0.00126287 0)
(0.0989457 -0.00105684 0)
(0.0992224 -0.000886856 0)
(0.099456 -0.000745912 0)
(0.0996535 -0.000628541 0)
(0.0998207 -0.000530429 0)
(0.0999624 -0.00044813 0)
(0.100083 -0.000378883 0)
(0.100184 -0.000320465 0)
(0.100271 -0.000271055 0)
(0.100344 -0.000229141 0)
(0.100406 -0.000193464 0)
(0.100458 -0.000162999 0)
(0.100502 -0.000136851 0)
(0.100538 -0.000114477 0)
(0.10057 -9.45428e-05 0)
(0.100594 -7.90441e-05 0)
(0.100617 -6.02528e-05 0)
(0.100631 -5.46637e-05 0)
(0.100649 -3.19259e-05 0)
(-0.0467091 0.120898 0)
(0.012692 -0.0227606 0)
(0.0339566 -0.0780685 0)
(0.0557684 -0.0837561 0)
(0.0662221 -0.0731461 0)
(0.0744311 -0.0545623 0)
(0.0804608 -0.0386624 0)
(0.0843045 -0.0276219 0)
(0.0868976 -0.0202504 0)
(0.0889241 -0.0152363 0)
(0.0906455 -0.0117171 0)
(0.0921383 -0.00916819 0)
(0.0934295 -0.00727236 0)
(0.0945382 -0.00583245 0)
(0.0954843 -0.00472053 0)
(0.0962881 -0.00385001 0)
(0.0969693 -0.0031605 0)
(0.0975459 -0.00260898 0)
(0.0980339 -0.002164 0)
(0.098447 -0.00180221 0)
(0.0987968 -0.00150609 0)
(0.0990932 -0.00126235 0)
(0.0993444 -0.00106071 0)
(0.0995575 -0.000893121 0)
(0.0997382 -0.000753282 0)
(0.0998917 -0.000636187 0)
(0.100022 -0.000537833 0)
(0.100133 -0.00045499 0)
(0.100227 -0.000385032 0)
(0.100307 -0.0003258 0)
(0.100374 -0.00027551 0)
(0.100432 -0.000232681 0)
(0.10048 -0.000196094 0)
(0.100521 -0.000164679 0)
(0.100555 -0.000137784 0)
(0.100584 -0.000113817 0)
(0.100607 -9.51709e-05 0)
(0.100628 -7.25752e-05 0)
(0.100641 -6.58031e-05 0)
(0.100658 -3.84059e-05 0)
(0.0239604 0.0395641 0)
(0.103667 -0.0606676 0)
(0.136349 -0.0961274 0)
(0.139715 -0.0875095 0)
(0.119233 -0.0742115 0)
(0.102568 -0.0588598 0)
(0.0946023 -0.0425879 0)
(0.0919387 -0.0299845 0)
(0.0915709 -0.0216706 0)
(0.0920612 -0.016296 0)
(0.0928706 -0.0126358 0)
(0.093776 -0.00999303 0)
(0.0946668 -0.00800665 0)
(0.0954909 -0.00647654 0)
(0.0962286 -0.00527888 0)
(0.0968766 -0.00433023 0)
(0.0974393 -0.0035715 0)
(0.0979245 -0.00295967 0)
(0.0983412 -0.0024627 0)
(0.0986982 -0.00205638 0)
(0.0990033 -0.00172227 0)
(0.0992639 -0.00144618 0)
(0.0994861 -0.00121703 0)
(0.0996756 -0.00102605 0)
(0.099837 -0.000866317 0)
(0.0999746 -0.000732318 0)
(0.100092 -0.00061959 0)
(0.100192 -0.000524506 0)
(0.100277 -0.000444107 0)
(0.100349 -0.000375961 0)
(0.10041 -0.000318055 0)
(0.100462 -0.000268705 0)
(0.100506 -0.00022652 0)
(0.100543 -0.000190277 0)
(0.100574 -0.000159238 0)
(0.100601 -0.00013157 0)
(0.100622 -0.000110032 0)
(0.100641 -8.39309e-05 0)
(0.100653 -7.60623e-05 0)
(0.100668 -4.43722e-05 0)
(0.191663 0.0323421 0)
(0.217923 -0.0675568 0)
(0.19707 -0.103628 0)
(0.191031 -0.0774024 0)
(0.166217 -0.0444837 0)
(0.134492 -0.0301846 0)
(0.113809 -0.0256357 0)
(0.102747 -0.0224493 0)
(0.0975547 -0.0190248 0)
(0.0956164 -0.0157061 0)
(0.0952369 -0.0128079 0)
(0.0954943 -0.0104172 0)
(0.0959757 -0.00849153 0)
(0.0965127 -0.00694993 0)
(0.0970378 -0.00571402 0)
(0.0975238 -0.00471882 0)
(0.0979612 -0.00391305 0)
(0.0983484 -0.00325698 0)
(0.0986877 -0.00271988 0)
(0.0989829 -0.00227795 0)
(0.0992384 -0.00191263 0)
(0.0994589 -0.00160938 0)
(0.0996485 -0.00135673 0)
(0.0998113 -0.0011455 0)
(0.0999508 -0.000968389 0)
(0.10007 -0.000819474 0)
(0.100173 -0.000693953 0)
(0.10026 -0.0005879 0)
(0.100334 -0.000498102 0)
(0.100398 -0.000421903 0)
(0.100452 -0.000357086 0)
(0.100498 -0.000301797 0)
(0.100537 -0.000254501 0)
(0.10057 -0.000213843 0)
(0.100597 -0.000179008 0)
(0.100621 -0.000147943 0)
(0.100639 -0.000123744 0)
(0.100656 -9.44073e-05 0)
(0.100667 -8.55275e-05 0)
(0.10068 -4.98765e-05 0)
(0.204173 0.0234764 0)
(0.188072 -0.0559359 0)
(0.0882079 -0.0808587 0)
(0.0589305 -0.0636138 0)
(0.065154 -0.0398061 0)
(0.0783715 -0.0269343 0)
(0.088612 -0.0227979 0)
(0.0936708 -0.0206384 0)
(0.095702 -0.0181543 0)