/*--------------------------------*- C++ -*----------------------------------*\
| =========                 |                                                 |
| \\      /  F ield         | OpenFOAM: The Open Source CFD Toolbox           |
|  \\    /   O peration     | Version:  2112                                  |
|   \\  /    A nd           | Website:  www.openfoam.com                      |
|    \\/     M anipulation  |                                                 |
\*---------------------------------------------------------------------------*/
FoamFile
{
    version     2.0;
    format      ascii;
    arch        "LSB;label=32;scalar=64";
    class       volScalarField;
    location    "0.02";
    object      nut;
}
// * * * * * * * * * * * * * * * * * * * * * * * * * * * * * * * * * * * * * //

dimensions      [0 2 -1 0 0 0 0];

internalField   nonuniform List<scalar> 
1880
(
2.67426e-10
9.7164e-10
5.52707e-10
7.48559e-12
4.24695e-12
3.36822e-14
3.93377e-14
7.6967e-17
1.3503e-17
3.65903e-19
6.27336e-18
2.05321e-17
4.90432e-17
9.82256e-17
1.94788e-16
3.78298e-16
7.28115e-16
1.44797e-15
2.92593e-15
6.1246e-15
1.3604e-14
3.26538e-14
8.3481e-14
2.64621e-13
8.28957e-13
5.06417e-12
1.69573e-11
2.5886e-10
1.00723e-09
2.02297e-08
6.0772e-08
1.37772e-07
9.80977e-08
1.64488e-08
1.17116e-08
8.56209e-11
1.01007e-10
2.11979e-13
6.75193e-14
2.84263e-13
1.26348e-12
3.23925e-12
7.15036e-12
1.44611e-11
2.8295e-11
5.52408e-11
1.06874e-10
2.06402e-10
3.97536e-10
7.56392e-10
1.40817e-09
2.55367e-09
4.40849e-09
7.43591e-09
1.13494e-08
1.84387e-08
2.4091e-08
4.26127e-08
5.0124e-08
9.7899e-08
5.39699e-08
1.34551e-07
1.01015e-07
2.3067e-08
1.97129e-08
3.71781e-09
4.83533e-09
8.60309e-10
8.43663e-10
9.50757e-10
1.09784e-09
1.26318e-09
1.46804e-09
1.72023e-09
2.02506e-09
2.39509e-09
2.84746e-09
3.40082e-09
4.08194e-09
4.92956e-09
5.99077e-09
7.33987e-09
9.0496e-09
1.1333e-08
1.41254e-08
1.84063e-08
2.24577e-08
3.15666e-08
3.5925e-08
5.1678e-08
5.99629e-08
1.32905e-07
1.00821e-07
2.41365e-08
2.12476e-08
3.38048e-09
4.7249e-09
7.03141e-10
7.4209e-10
8.49105e-10
1.00848e-09
1.18678e-09
1.39791e-09
1.64958e-09
1.95446e-09
2.32105e-09
2.76235e-09
3.29973e-09
3.95698e-09
4.7662e-09
5.76759e-09
7.02534e-09
8.58655e-09
1.06418e-08
1.30818e-08
1.67648e-08
2.06434e-08
2.74996e-08
3.24285e-08
4.52992e-08
6.12588e-08
1.31548e-07
1.0092e-07
2.41364e-08
2.17451e-08
3.62403e-09
4.84797e-09
5.45783e-10
6.36924e-10
7.53555e-10
9.32219e-10
1.12089e-09
1.34353e-09
1.60276e-09
1.90691e-09
2.26893e-09
2.702e-09
3.22386e-09
3.85609e-09
4.62629e-09
5.56769e-09
6.7317e-09
8.16009e-09
9.9785e-09
1.21783e-08
1.51079e-08
1.8808e-08
2.33422e-08
2.72958e-08
3.30517e-08
6.21454e-08
1.30861e-07
1.0116e-07
2.43168e-08
2.20859e-08
3.46447e-09
4.73585e-09
4.3934e-10
5.69622e-10
6.811e-10
8.72215e-10
1.0725e-09
1.29807e-09
1.55814e-09
1.86085e-09
2.21694e-09
2.63957e-09
3.14368e-09
3.7473e-09
4.47455e-09
5.35496e-09
6.42721e-09
7.72525e-09
9.31901e-09
1.12757e-08
1.36309e-08
1.70334e-08
2.03776e-08
2.43048e-08
2.75427e-08
6.25387e-08
1.30455e-07
1.01309e-07
2.44307e-08
2.236e-08
3.10165e-09
4.53537e-09
3.66818e-10
5.41536e-10
6.47252e-10
8.38089e-10
1.04001e-09
1.265e-09
1.52241e-09
1.82064e-09
2.16912e-09
2.57863e-09
3.0608e-09
3.63382e-09
4.31988e-09
5.14049e-09
6.12104e-09
7.29441e-09
8.68636e-09
1.04312e-08
1.2321e-08
1.54672e-08
1.77916e-08
2.16593e-08
2.32654e-08
6.27502e-08
1.30272e-07
1.01349e-07
2.45327e-08
2.26284e-08
2.60787e-09
4.29314e-09
3.9488e-10
5.73621e-10
6.53377e-10
8.31872e-10
1.02712e-09
1.24636e-09
1.49924e-09
1.79049e-09
2.12591e-09
2.51768e-09
2.97925e-09
3.52497e-09
4.169e-09
4.9275e-09
5.82137e-09
6.88367e-09
8.10546e-09
9.66099e-09
1.11826e-08
1.40477e-08
1.56316e-08
1.93109e-08
2.00099e-08
6.28535e-08
1.30216e-07
1.01265e-07
2.4704e-08
2.28568e-08
2.39542e-09
4.03658e-09
4.47874e-10
6.32299e-10
6.84336e-10
8.45224e-10
1.03189e-09
1.24553e-09
1.48774e-09
1.76435e-09
2.08637e-09
2.4638e-09
2.90479e-09
3.41978e-09
4.0205e-09
4.72174e-09
5.5393e-09
6.50252e-09
7.5803e-09
8.96089e-09
1.02079e-08
1.27419e-08
1.38332e-08
1.72791e-08
1.74474e-08
6.289e-08
1.30283e-07
1.011e-07
2.48649e-08
2.30905e-08
2.5371e-09
3.89835e-09
5.23547e-10
6.958e-10
7.34044e-10
8.79082e-10
1.05231e-09
1.25136e-09
1.48018e-09
1.74603e-09
2.05638e-09
2.41649e-09
2.83364e-09
3.31799e-09
3.8801e-09
4.53205e-09
5.28184e-09
6.15408e-09
7.10978e-09
8.33116e-09
9.38114e-09
1.15653e-08
1.23622e-08
1.54285e-08
1.53941e-08
6.28764e-08
1.30424e-07
1.00847e-07
2.5053e-08
2.33272e-08
2.85973e-09
3.8852e-09
6.06783e-10
7.70014e-10
7.92136e-10
9.17963e-10
1.07641e-09
1.26303e-09
1.48026e-09
1.73434e-09
2.03011e-09
2.37177e-09
2.76712e-09
3.22447e-09
3.75135e-09
4.35757e-09
5.04674e-09
5.83875e-09
6.69444e-09
7.77449e-09
8.67858e-09
1.05288e-08
1.11302e-08
1.38086e-08
1.37491e-08
6.28181e-08
1.30654e-07
1.00508e-07
2.52425e-08
2.35372e-08
3.16786e-09
3.97565e-09
6.83662e-10
8.41348e-10
8.46352e-10
9.55992e-10
1.10128e-09
1.27585e-09
1.4818e-09
1.72375e-09
2.00518e-09
2.33101e-09
2.70761e-09
3.1402e-09
3.63458e-09
4.19861e-09
4.83455e-09
5.55841e-09
6.33248e-09
7.28946e-09
8.08755e-09
9.63257e-09
1.01412e-08
1.23952e-08
1.24472e-08
6.26946e-08
1.30975e-07
1.0009e-07
2.54255e-08
2.37272e-08
3.38552e-09
4.12342e-09
7.48229e-10
8.97739e-10
8.89063e-10
9.86181e-10
1.12169e-09
1.286e-09
1.48199e-09
1.71306e-09
1.98169e-09
2.2929e-09
2.6522e-09
3.06308e-09
3.53011e-09
4.05844e-09
4.64813e-09
5.31228e-09
6.01835e-09
6.87002e-09
7.59096e-09
8.87474e-09
9.34289e-09
1.1189e-08
1.13779e-08
6.24586e-08
1.31402e-07
9.95779e-08
2.55806e-08
2.38789e-08
3.50329e-09
4.2753e-09
7.96821e-10
9.34209e-10
9.17225e-10
1.00464e-09
1.13262e-09
1.28934e-09
1.47734e-09
1.6993e-09
1.9583e-09
2.25807e-09
2.60215e-09
2.99389e-09
3.43669e-09
3.9342e-09
4.48579e-09
5.10079e-09
5.75173e-09
6.51497e-09
7.17711e-09
8.2434e-09
8.70618e-09
1.01814e-08
1.04857e-08
6.2036e-08
1.32036e-07
9.90292e-08
2.57734e-08
2.40582e-08
3.49017e-09
4.39458e-09
8.20296e-10
9.50641e-10
9.26184e-10
1.00716e-09
1.13059e-09
1.28324e-09
1.46661e-09
1.68278e-09
1.93504e-09
2.22606e-09
2.55747e-09
2.93301e-09
3.35576e-09
3.8276e-09
4.34773e-09
4.92183e-09
5.52759e-09
6.21695e-09
6.83599e-09
7.72897e-09
8.19941e-09
9.36264e-09
9.73714e-09
6.11048e-08
1.32834e-07
9.82978e-08
2.56969e-08
2.40333e-08
3.62345e-09
4.51081e-09
8.1564e-10
9.38119e-10
9.1051e-10
9.90784e-10
1.11491e-09
1.26798e-09
1.45037e-09
1.66397e-09
1.91143e-09
2.19547e-09
2.51769e-09
2.88098e-09
3.28772e-09
3.73882e-09
4.23335e-09
4.77397e-09
5.34381e-09
5.97448e-09
6.56131e-09
7.31955e-09
7.80023e-09
8.71135e-09
9.12188e-09
5.97763e-08
1.34404e-07
9.81115e-08
2.61546e-08
2.42164e-08
3.37535e-09
4.53664e-09
7.71081e-10
9.04223e-10
8.69022e-10
9.55662e-10
1.0868e-09
1.24453e-09
1.42914e-09
1.64346e-09
1.88925e-09
2.1684e-09
2.48373e-09
2.83796e-09
3.23238e-09
3.66741e-09
4.14211e-09
4.6567e-09
5.19892e-09
5.78347e-09
6.34576e-09
7.0028e-09
7.49595e-09
8.21398e-09
8.64355e-09
5.3514e-08
1.35914e-07
9.77142e-08
2.5201e-08
2.34115e-08
3.70815e-09
4.28682e-09
5.84816e-10
7.23999e-10
7.3089e-10
8.47006e-10
9.99149e-10
1.17112e-09
1.36487e-09
1.58419e-09
1.83213e-09
2.11123e-09
2.42451e-09
2.77423e-09
3.16116e-09
3.58609e-09
4.04819e-09
4.54532e-09
5.06864e-09
5.6217e-09
6.16719e-09
6.75391e-09
7.2544e-09
7.83901e-09
8.29154e-09
6.0492e-08
1.38685e-07
9.51634e-08
1.54005e-08
1.13077e-08
1.6939e-10
1.57545e-10
7.82158e-12
3.40673e-12
1.6823e-12
1.2328e-12
1.07138e-12
1.02879e-12
1.02318e-12
9.91403e-13
8.88429e-13
6.80955e-13
3.92149e-13
1.24783e-13
5.07394e-15
3.91951e-14
8.60046e-13
5.07608e-12
1.81281e-11
4.8267e-11
1.0681e-10
2.0513e-10
3.38082e-10
5.72801e-10
8.10525e-10
2.65651e-10
9.74311e-10
5.52851e-10
7.53667e-12
4.36958e-12
3.38646e-14
3.92173e-14
3.08115e-16
1.21237e-16
3.71207e-17
2.77022e-17
2.71015e-17
3.16081e-17
4.10049e-17
5.53422e-17
7.51426e-17
1.0183e-16
1.36771e-16
1.80631e-16
2.31423e-16
2.852e-16
3.3864e-16
3.81985e-16
4.01055e-16
3.95472e-16
3.60931e-16
2.4702e-16
2.52088e-16
1.98421e-17
9.84281e-17
1.88164e-08
1.61243e-10
1.76241e-10
1.55863e-11
9.41414e-12
4.15356e-10
4.09931e-09
6.38018e-08
1.00923e-08
4.22224e-08
1.10509e-07
1.06325e-07
5.13672e-08
4.348e-08
8.86895e-08
7.61774e-08
1.97641e-07
2.0534e-07
1.40715e-07
3.83449e-07
1.31755e-07
5.49133e-08
6.83854e-08
6.30005e-08
6.97526e-08
7.74976e-08
1.18622e-07
1.24588e-07
5.39352e-08
6.32455e-08
6.86154e-08
5.9841e-08
4.74088e-08
4.83715e-08
7.6303e-08
5.12293e-08
1.95984e-07
1.16236e-07
1.96093e-07
1.1096e-07
6.97966e-08
3.95219e-08
4.69067e-08
4.97936e-08
5.52457e-08
5.53168e-08
7.10972e-08
6.17846e-08
8.64235e-08
8.70323e-08
5.20431e-08
3.78613e-08
3.54447e-08
3.65995e-08
4.42254e-08
4.43e-08
7.3735e-08
5.24184e-08
6.22438e-08
9.12109e-08
4.47461e-08
3.10392e-08
3.12396e-08
3.29252e-08
3.58453e-08
3.8248e-08
4.02264e-08
4.22556e-08
4.43195e-08
5.72878e-08
3.73419e-08
2.83314e-08
2.84634e-08
2.84268e-08
3.25981e-08
3.33293e-08
3.53869e-08
3.4933e-08
3.68878e-08
3.7802e-08
3.07925e-08
2.57432e-08
2.61478e-08
2.44014e-08
2.59513e-08
2.7147e-08
2.74989e-08
2.73463e-08
2.68362e-08
2.57695e-08
2.45013e-08
2.33093e-08
2.36288e-08
2.10712e-08
2.20961e-08
2.30191e-08
2.32793e-08
2.26434e-08
2.24684e-08
2.08668e-08
1.90679e-08
2.05649e-08
2.04192e-08
1.82152e-08
1.87856e-08
1.92583e-08
1.91213e-08
1.83074e-08
1.77002e-08
1.66989e-08
1.51576e-08
1.79712e-08
1.76039e-08
1.57925e-08
1.60734e-08
1.62713e-08
1.59753e-08
1.50828e-08
1.44467e-08
1.35861e-08
1.26622e-08
1.56817e-08
1.51859e-08
1.37545e-08
1.38057e-08
1.37567e-08
1.32957e-08
1.2373e-08
1.16841e-08
1.10618e-08
1.11224e-08
1.37701e-08
1.32305e-08
1.20516e-08
1.19189e-08
1.16848e-08
1.1097e-08
1.0158e-08
9.45231e-09
8.99602e-09
1.01243e-08
1.21752e-08
1.16651e-08
1.06525e-08
1.03589e-08
9.97143e-09
9.27119e-09
8.31058e-09
7.58642e-09
7.25941e-09
9.4217e-09
1.08514e-08
1.04209e-08
9.52895e-09
9.08923e-09
8.56497e-09
7.76076e-09
6.7632e-09
6.00528e-09
5.72982e-09
8.90746e-09
9.78888e-09
9.45305e-09
8.65728e-09
8.08614e-09
7.42919e-09
6.51624e-09
5.46413e-09
4.62955e-09
4.3465e-09
8.51964e-09
8.99484e-09
8.75201e-09
8.08169e-09
7.42138e-09
6.65075e-09
5.65599e-09
4.56102e-09
3.63966e-09
3.27327e-09
9.51192e-10
1.31156e-09
1.30239e-09
9.89266e-10
7.2838e-10
5.54755e-10
4.04035e-10
2.97734e-10
1.86537e-10
1.42258e-10
5.39218e-16
2.21468e-15
2.43514e-15
2.08328e-15
2.38551e-15
3.61153e-15
6.3059e-15
8.18225e-15
8.65708e-15
3.44366e-15
2.82588e-08
6.27507e-08
1.41594e-08
3.75803e-09
9.6802e-10
2.22124e-10
5.63755e-11
1.52331e-11
4.35421e-12
1.32252e-12
4.28729e-13
1.48549e-13
5.50217e-14
2.17572e-14
9.11231e-15
4.01103e-15
1.85309e-15
8.93007e-16
4.44662e-16
2.29045e-16
1.22224e-16
6.66438e-17
3.66629e-17
2.04752e-17
1.17043e-17
6.80955e-18
4.00874e-18
2.39159e-18
1.4439e-18
8.77036e-19
5.35224e-19
3.30358e-19
2.06973e-19
1.33839e-19
8.81421e-20
5.86159e-20
4.67289e-20
2.28986e-20
3.77505e-20
1.34256e-20
2.33123e-08
1.03491e-07
9.07168e-08
9.76777e-08
8.61206e-08
6.93716e-08
5.35183e-08
3.92817e-08
2.72544e-08
1.76396e-08
1.05058e-08
5.72671e-09
2.87951e-09
1.36174e-09
6.20215e-10
2.78085e-10
1.24961e-10
5.69497e-11
2.64925e-11
1.26364e-11
6.19272e-12
3.11091e-12
1.59705e-12
8.38598e-13
4.51173e-13
2.48151e-13
1.38975e-13
7.90602e-14
4.56088e-14
2.66492e-14
1.57928e-14
9.52665e-15
5.87498e-15
3.70539e-15
2.41181e-15
1.5445e-15
1.20189e-15
5.51471e-16
9.39404e-16
3.30767e-16
9.02754e-08
1.21106e-07
1.343e-07
1.11305e-07
9.61091e-08
7.38309e-08
5.67853e-08
4.30623e-08
3.26404e-08
2.49342e-08
1.92647e-08
1.50675e-08
1.19242e-08
9.53783e-09
7.70084e-09
6.26766e-09
5.13556e-09
4.23104e-09
3.5008e-09
2.90522e-09
2.41447e-09
2.0062e-09
1.66363e-09
1.37401e-09
1.1275e-09
9.16488e-10
7.35168e-10
5.79401e-10
4.46433e-10
3.34644e-10
2.4311e-10
1.70722e-10
1.15876e-10
7.58591e-11
4.84754e-11
2.94172e-11
1.95824e-11
8.8681e-12
1.09364e-11
3.41686e-12
5.75586e-08
1.91715e-07
1.57874e-07
1.34015e-07
1.09735e-07
8.00697e-08
5.94481e-08
4.38706e-08
3.26546e-08
2.46791e-08
1.89607e-08
1.47916e-08
1.16944e-08
9.35198e-09
7.5517e-09
6.14812e-09
5.04023e-09
4.15674e-09
3.44587e-09
2.86908e-09
2.39744e-09
2.00929e-09
1.68828e-09
1.42172e-09
1.19956e-09
1.01373e-09
8.57728e-10
7.26256e-10
6.15007e-10
5.20611e-10
4.40469e-10
3.72325e-10
3.14338e-10
2.64302e-10
2.2098e-10
1.77607e-10
1.27415e-10
4.94384e-11
2.85582e-11
2.2707e-12
2.57937e-07
9.63899e-09
1.97048e-07
1.5594e-07
1.33521e-07
8.91387e-08
6.26589e-08
4.44812e-08
3.23573e-08
2.41733e-08
1.84933e-08
1.44239e-08
1.14231e-08
9.15719e-09
7.41335e-09
6.05033e-09
4.97101e-09
4.10749e-09
3.41062e-09
2.84363e-09
2.3789e-09
1.99575e-09
1.67839e-09
1.41447e-09
1.19423e-09
1.00981e-09
8.54851e-10
7.24161e-10
6.1358e-10
5.1983e-10
4.40307e-10
3.72736e-10
3.15286e-10
2.65833e-10
2.23213e-10
1.81223e-10
1.35171e-10
5.78319e-11
3.91642e-11
4.22118e-12
7.42714e-08
5.44574e-06
2.57112e-08
1.71886e-07
1.55784e-07
1.04841e-07
6.64883e-08
4.46261e-08
3.15817e-08
2.33411e-08
1.78284e-08
1.39394e-08
1.10815e-08
8.91861e-09
7.24681e-09
5.93389e-09
4.88944e-09
4.05008e-09
3.37005e-09
2.81495e-09
2.35865e-09
1.98148e-09
1.66842e-09
1.40765e-09
1.1897e-09
1.00693e-09
8.532e-10
7.2349e-10
6.13755e-10
5.20764e-10
4.41923e-10
3.74991e-10
3.18173e-10
2.69432e-10
2.27727e-10
1.87639e-10
1.47607e-10
7.35379e-11
5.99197e-11
9.18415e-12
1.43257e-08
2.29878e-06
1.70668e-08
8.342e-08
1.9978e-07
1.50121e-07
8.38417e-08
4.77801e-08
3.09172e-08
2.22518e-08
1.69705e-08
1.33383e-08
1.06698e-08
8.63648e-09
7.05197e-09
5.79802e-09
4.79404e-09
3.98283e-09
3.32246e-09
2.78111e-09
2.33456e-09
1.96443e-09
1.65648e-09
1.39938e-09
1.18405e-09
1.00323e-09
8.50997e-10
7.22481e-10
6.13721e-10
5.21573e-10
4.43501e-10
3.77302e-10
3.21202e-10
2.7323e-10
2.32451e-10
1.9407e-10
1.59079e-10
9.0596e-11
8.43585e-11
1.77098e-11
5.2219e-06
2.0812e-06
2.03313e-07
3.57487e-07
2.35336e-07
1.24026e-07
7.13751e-08
4.18331e-08
2.72554e-08
2.06002e-08
1.63642e-08
1.31695e-08
1.06819e-08
8.72492e-09
7.17103e-09
5.92608e-09
4.92045e-09
4.10213e-09
3.43194e-09
2.87987e-09
2.4227e-09
2.04245e-09
1.72508e-09
1.45943e-09
1.23648e-09
1.04898e-09
8.90911e-10
7.57336e-10
6.44254e-10
5.48475e-10
4.67378e-10
3.98677e-10
3.40533e-10
2.90974e-10
2.49106e-10
2.10413e-10
1.7791e-10
1.12889e-10
1.13981e-10
3.21535e-11
2.53466e-07
3.73613e-07
6.34316e-07
1.5817e-06
3.04798e-07
1.6644e-09
7.5851e-08
3.36002e-08
2.29927e-08
1.85354e-08
1.5154e-08
1.23865e-08
1.01549e-08
8.36344e-09
6.92001e-09
5.75021e-09
4.79653e-09
4.01443e-09
3.36959e-09
2.83543e-09
2.39107e-09
2.02001e-09
1.70924e-09
1.44835e-09
1.2289e-09
1.04398e-09
8.87836e-10
7.55744e-10
6.43882e-10
5.49152e-10
4.68963e-10
4.01067e-10
3.4367e-10
2.94912e-10
2.53951e-10
2.16653e-10
1.87399e-10
1.28675e-10
1.35339e-10
4.96276e-11
2.0508e-07
1.2892e-07
3.70852e-09
6.25232e-08
1.18198e-07
8.77398e-08
5.30541e-08
3.22027e-08
2.2534e-08
1.75446e-08
1.42089e-08
1.16623e-08
9.6343e-09
7.99526e-09
6.65993e-09
5.56591e-09
4.66544e-09
3.92093e-09
3.30268e-09
2.78744e-09
2.35663e-09
1.99536e-09
1.69166e-09
1.43591e-09
1.22024e-09
1.03809e-09
8.84021e-10
7.53533e-10
6.42978e-10
5.49338e-10
4.70065e-10
4.02964e-10
3.46298e-10
2.98308e-10
2.58175e-10
2.22012e-10
1.9512e-10
1.4113e-10
1.51212e-10
6.79687e-11
2.15526e-07
1.68634e-07
5.40677e-08
9.72175e-08
8.40179e-08
5.54558e-08
3.32075e-08
2.29927e-08
1.86744e-08
1.56404e-08
1.30699e-08
1.09075e-08
9.11213e-09
7.62743e-09
6.39872e-09
5.37954e-09
4.53198e-09
3.82509e-09
3.23375e-09
2.73778e-09
2.32085e-09
1.9696e-09
1.67319e-09
1.42276e-09
1.21097e-09
1.03169e-09
8.7976e-10
7.50919e-10
6.41676e-10
5.49094e-10
4.70683e-10
4.04326e-10
3.48333e-10
3.01038e-10
2.61607e-10
2.26339e-10
2.01132e-10
1.50367e-10
1.62476e-10
8.42155e-11
7.20167e-08
1.36719e-07
7.60194e-08
5.65963e-08
5.3665e-08
3.77225e-08
2.71547e-08
2.12192e-08
1.74009e-08
1.45109e-08
1.21699e-08
1.02334e-08
8.61987e-09
7.27119e-09
6.14173e-09
5.19424e-09
4.39818e-09
3.72833e-09
3.16373e-09
2.68709e-09
2.28411e-09
1.943e-09
1.65398e-09
1.40897e-09
1.20116e-09
1.0248e-09
8.75037e-10
7.4785e-10
6.39888e-10
5.48309e-10
4.70701e-10
4.05028e-10
3.49639e-10
3.0294e-10
2.64069e-10
2.29472e-10
2.05413e-10
1.56648e-10
1.70007e-10
9.64471e-11
8.8397e-08
7.12513e-08
4.2876e-08
4.34534e-08
3.64045e-08
2.77618e-08
2.20353e-08
1.83926e-08
1.55939e-08
1.32583e-08
1.1274e-08
9.58489e-09
8.14848e-09
6.9282e-09
5.89223e-09
5.01283e-09
4.26623e-09
3.63229e-09
3.09382e-09
2.63618e-09
2.24701e-09
1.91597e-09
1.63435e-09
1.39477e-09
1.19094e-09
1.01749e-09
8.69891e-10
7.44325e-10
6.3759e-10
5.46948e-10
4.70073e-10
4.05008e-10
3.50128e-10
3.03904e-10
2.65433e-10
2.31299e-10
2.07945e-10
1.60239e-10
1.7439e-10
1.03978e-10
5.24456e-08
4.25908e-08
3.76416e-08
3.05725e-08
2.68513e-08
2.26133e-08
1.92237e-08
1.64975e-08
1.41819e-08
1.21901e-08
1.04722e-08
8.98843e-09
7.70746e-09
6.60338e-09
5.65356e-09
4.83775e-09
4.13795e-09
3.53835e-09
3.02503e-09
2.58578e-09
2.21007e-09
1.88893e-09
1.61459e-09
1.38036e-09
1.18045e-09
1.00986e-09
8.64368e-10
7.40364e-10
6.34787e-10
5.45005e-10
4.68781e-10
4.04229e-10
3.49746e-10
3.03862e-10
2.65627e-10
2.31757e-10
2.08712e-10
1.61307e-10
1.75925e-10
1.06748e-10
3.91975e-08
3.16892e-08
2.93315e-08
2.55348e-08
2.24664e-08
1.95423e-08
1.69459e-08
1.47706e-08
1.28809e-08
1.12111e-08
9.73672e-09
8.43803e-09
7.29725e-09
6.29867e-09
5.42781e-09
4.67089e-09
4.01488e-09
3.44769e-09
2.95824e-09
2.53657e-09
2.17383e-09
1.86226e-09
1.595e-09
1.36597e-09
1.16984e-09
1.00202e-09
8.58542e-10
7.36018e-10
6.31513e-10
5.42505e-10
4.66837e-10
4.02692e-10
3.48482e-10
3.02796e-10
2.6463e-10
2.30831e-10
2.07712e-10
1.59901e-10
1.74714e-10
1.04819e-10
3.74578e-08
2.42656e-08
2.26051e-08
2.06198e-08
1.88158e-08
1.68633e-08
1.49483e-08
1.32569e-08
1.17293e-08
1.03358e-08
9.07255e-09
7.93604e-09
6.91969e-09
6.01589e-09
5.21675e-09
4.51383e-09
3.89831e-09
3.36129e-09
2.89424e-09
2.48916e-09
2.13876e-09
1.83634e-09
1.57584e-09
1.35176e-09
1.15926e-09
9.94068e-10
8.52506e-10
7.3136e-10
6.27829e-10
5.39498e-10
4.64287e-10
4.00434e-10
3.4637e-10
3.00739e-10
2.62476e-10
2.28548e-10
2.04955e-10
1.55957e-10
1.70697e-10
9.8186e-11
2.7289e-08
1.93371e-08
1.84113e-08
1.72099e-08
1.59774e-08
1.46496e-08
1.3246e-08
1.194e-08
1.0713e-08
9.55566e-09
8.47625e-09
7.48194e-09
6.57542e-09
5.75616e-09
5.02161e-09
4.36774e-09
3.78922e-09
3.27997e-09
2.83368e-09
2.44412e-09
2.1053e-09
1.8115e-09
1.55735e-09
1.33795e-09
1.14885e-09
9.86138e-10
8.46364e-10
7.26481e-10
6.23818e-10
5.36061e-10
4.61203e-10
3.97529e-10
3.43485e-10
2.97772e-10
2.59246e-10
2.24974e-10
2.00458e-10
1.49296e-10
1.63626e-10
8.69046e-11
2.31398e-08
1.57732e-08
1.4794e-08
1.43167e-08
1.3633e-08
1.27852e-08
1.17893e-08
1.08002e-08
9.82413e-09
8.86672e-09
7.94543e-09
7.07491e-09
6.26474e-09
5.52022e-09
4.84329e-09
4.23347e-09
3.68841e-09
3.20443e-09
2.77718e-09
2.40195e-09
2.07386e-09
1.78804e-09
1.53978e-09
1.3247e-09
1.13877e-09
9.78359e-10
8.40227e-10
7.21484e-10
6.1958e-10
5.32297e-10
4.57692e-10
3.94087e-10
3.39945e-10
2.94017e-10
2.55065e-10
2.20213e-10
1.94232e-10
1.39629e-10
1.52993e-10
7.15234e-11
1.88574e-08
1.29496e-08
1.21231e-08
1.20408e-08
1.17289e-08
1.12333e-08
1.05553e-08
9.82264e-09
9.05371e-09
8.26423e-09
7.47764e-09
6.71385e-09
5.98752e-09
5.30848e-09
4.68238e-09
4.11169e-09
3.59651e-09
3.13527e-09
2.72527e-09
2.36307e-09
2.04475e-09
1.76621e-09
1.52334e-09
1.31221e-09
1.12918e-09
9.70869e-10
8.34217e-10
7.16485e-10
6.15235e-10
5.28331e-10
4.53882e-10
3.90249e-10
3.35902e-10
2.89639e-10
2.50102e-10
2.14401e-10
1.8626e-10
1.26654e-10
1.37984e-10
5.36616e-11
1.56005e-08
1.0701e-08
9.99036e-09
1.01953e-08
1.01719e-08
9.94552e-09
9.51748e-09
8.99191e-09
8.39313e-09
7.7434e-09
7.07031e-09
6.39758e-09
5.74344e-09
5.12112e-09
4.53928e-09
4.00285e-09
3.51403e-09
3.07298e-09
2.67837e-09
2.32782e-09
2.01825e-09
1.74624e-09
1.50821e-09
1.30066e-09
1.12024e-09
9.63799e-10
8.2846e-10
7.11611e-10
6.10914e-10
5.24302e-10
4.49924e-10
3.86175e-10
3.31535e-10
2.84835e-10
2.44566e-10
2.07709e-10
1.76486e-10
1.10356e-10
1.17763e-10
3.60496e-11
1.27707e-08
8.82046e-09
8.29862e-09
8.71023e-09
8.90601e-09
8.886e-09
8.65426e-09
8.29459e-09
7.83425e-09
7.29964e-09
6.72106e-09
6.12489e-09
5.53197e-09
4.95808e-09
4.4142e-09
3.90734e-09
3.4414e-09
3.01796e-09
2.63682e-09
2.29649e-09
1.99462e-09
1.72835e-09
1.4946e-09
1.2902e-09
1.11208e-09
9.57282e-10
8.23085e-10
7.06994e-10
6.06755e-10
5.20356e-10
4.45978e-10
3.82046e-10
3.27044e-10
2.7983e-10
2.38706e-10
2.00347e-10
1.64834e-10
9.15144e-11
9.26661e-11
2.14476e-11
1.02655e-08
7.22022e-09
6.94748e-09
7.51979e-09
7.88639e-09
8.02547e-09
7.94724e-09
7.71913e-09
7.36985e-09
6.92862e-09
6.42746e-09
5.89454e-09
5.3526e-09
4.81923e-09
4.30729e-09
3.82543e-09
3.37893e-09
2.97051e-09
2.60088e-09
2.26931e-09
1.97404e-09
1.71273e-09
1.48266e-09
1.28098e-09
1.10483e-09
9.51442e-10
8.18218e-10
7.02766e-10
6.029e-10
5.16643e-10
4.42207e-10
3.78045e-10
3.22647e-10
2.74877e-10
2.32804e-10
1.92571e-10
1.51342e-10
7.20653e-11
6.59047e-11
1.12498e-11
7.9305e-09
5.85499e-09
5.88052e-09
6.58164e-09
7.0809e-09
7.34181e-09
7.38185e-09
7.2559e-09
6.99383e-09
6.62668e-09
6.18744e-09
5.70543e-09
5.20477e-09
4.70443e-09
4.21863e-09
3.75731e-09
3.32686e-09
2.93086e-09
2.57077e-09
2.24646e-09
1.9567e-09
1.69952e-09
1.47252e-09
1.2731e-09
1.09859e-09
9.46373e-10
8.13961e-10
6.99036e-10
5.99459e-10
5.13286e-10
4.38756e-10
3.74346e-10
3.18544e-10
2.70213e-10
2.27148e-10
1.847e-10
1.36418e-10
5.44797e-11
4.26352e-11
5.19461e-12
5.68703e-09
4.71269e-09
5.08619e-09
5.87724e-09
6.47021e-09
6.81988e-09
6.94719e-09
6.89734e-09
6.7009e-09
6.39005e-09
5.99821e-09
5.5554e-09
5.0867e-09
4.61212e-09
4.14685e-09
3.70175e-09
3.284e-09
2.89786e-09
2.54536e-09
2.22685e-09
1.94149e-09
1.68761e-09
1.46307e-09
1.26544e-09
1.09223e-09
9.40928e-10
8.09148e-10
6.94619e-10
5.9524e-10
5.0909e-10
4.34427e-10
3.69745e-10
3.13522e-10
2.64592e-10
2.20365e-10
1.7488e-10
1.17087e-10
3.76274e-11
2.33024e-11
1.74319e-12
4.10175e-09
3.95014e-09
4.56019e-09
5.40134e-09
6.03549e-09
6.42171e-09
6.58789e-09
6.57308e-09
6.40792e-09
6.12464e-09
5.75629e-09
5.33283e-09
4.87952e-09
4.41665e-09
3.95964e-09
3.51962e-09
3.10402e-09
2.71732e-09
2.36169e-09
2.03758e-09
1.74417e-09
1.47982e-09
1.2424e-09
1.02959e-09
8.39137e-10
6.69051e-10
5.17837e-10
3.84736e-10
2.69953e-10
1.74656e-10
1.00514e-10
4.86624e-11
1.78982e-11
4.06288e-12
2.41116e-13
9.52813e-15
1.03273e-12
1.92881e-12
1.10269e-11
8.44842e-12
4.69132e-11
2.30367e-11
3.77543e-11
5.8427e-11
6.39646e-11
5.78914e-11
4.64128e-11
3.311e-11
2.08131e-11
1.13627e-11
5.25217e-12
1.95815e-12
5.31462e-13
8.02417e-14
2.21239e-15
2.90831e-15
3.08585e-14
8.19054e-14
1.31765e-13
1.63166e-13
1.71784e-13
1.61885e-13
1.40753e-13
1.15135e-13
8.98226e-14
6.75279e-14
4.93295e-14
3.52566e-14
2.47925e-14
1.72324e-14
1.18879e-14
8.17268e-15
5.62305e-15
3.88717e-15
2.72841e-15
1.87753e-15
1.55842e-15
7.28981e-16
1.33673e-15
4.96897e-16
5.5869e-17
2.2308e-17
1.68781e-17
2.42209e-16
2.25783e-16
9.19056e-17
2.4218e-17
5.60679e-18
6.19947e-18
1.78223e-17
3.80452e-17
5.99172e-17
7.66438e-17
8.47884e-17
8.43508e-17
7.73983e-17
6.66347e-17
5.44931e-17
4.27388e-17
3.23983e-17
2.38829e-17
1.71973e-17
1.21339e-17
8.40852e-18
5.73621e-18
3.86338e-18
2.57776e-18
1.71007e-18
1.13141e-18
7.4823e-19
4.95702e-19
3.29392e-19
2.20676e-19
1.48409e-19
1.02152e-19
6.90731e-20
5.45687e-20
2.73003e-20
4.89609e-20
1.88494e-20
)
;

boundaryField
{
    inlet
    {
        type            calculated;
        value           nonuniform List<scalar> 
20
(
1.10995e-31
5.9255e-31
5.91881e-31
5.93912e-31
5.9432e-31
5.94605e-31
5.94741e-31
5.94826e-31
5.94884e-31
5.94951e-31
5.95005e-31
5.95065e-31
5.95113e-31
5.95116e-31
5.95073e-31
5.94865e-31
5.94502e-31
5.92548e-31
5.93219e-31
1.11432e-31
)
;
    }
    outlet
    {
        type            calculated;
        value           nonuniform List<scalar> 
27
(
6.72204e-37
5.3435e-37
3.53979e-37
1.84069e-37
6.49228e-38
9.93189e-39
5.4664e-42
5.81337e-39
4.94872e-38
1.53105e-37
3.07865e-37
4.77579e-37
6.14552e-37
6.8017e-37
6.6051e-37
5.69916e-37
3.69144e-37
1.06448e-35
3.22666e-39
3.2404e-42
2.92673e-42
2.55333e-39
5.54935e-36
6.27719e-37
6.13921e-37
7.08515e-37
7.32802e-37
)
;
    }
    lowerWall
    {
        type            fixedValue;
        value           uniform 0;
    }
    upperWall
    {
        type            fixedValue;
        value           uniform 0;
    }
    defaultFaces
    {
        type            empty;
    }
}


// ************************************************************************* //
