/*--------------------------------*- C++ -*----------------------------------*\
| =========                 |                                                 |
| \\      /  F ield         | OpenFOAM: The Open Source CFD Toolbox           |
|  \\    /   O peration     | Version:  2112                                  |
|   \\  /    A nd           | Website:  www.openfoam.com                      |
|    \\/     M anipulation  |                                                 |
\*---------------------------------------------------------------------------*/
FoamFile
{
    version     2.0;
    format      ascii;
    arch        "LSB;label=32;scalar=64";
    class       volScalarField;
    location    "0.02";
    object      p;
}
// * * * * * * * * * * * * * * * * * * * * * * * * * * * * * * * * * * * * * //

dimensions      [0 2 -2 0 0 0 0];

internalField   nonuniform List<scalar> 
1880
(
0.00537599
0.00477391
0.00500953
0.00495921
0.00484779
0.00480086
0.00479056
0.0047785
0.00476327
0.0047503
0.00474046
0.0047334
0.00472925
0.00472837
0.00473128
0.00473864
0.00475128
0.00477025
0.00479689
0.00483292
0.00488058
0.00494274
0.00502355
0.00512787
0.00526537
0.00544256
0.00568681
0.00600862
0.00644316
0.00709099
0.0052146
0.00471364
0.00497565
0.00494483
0.0048383
0.00479383
0.00478617
0.00477549
0.00476065
0.00474776
0.00473785
0.00473057
0.00472604
0.00472467
0.00472692
0.00473344
0.004745
0.00476258
0.00478744
0.00482112
0.0048656
0.00492342
0.00499777
0.00509282
0.00521305
0.00536483
0.00554845
0.00576669
0.00598914
0.00618843
0.00517773
0.00469291
0.00496333
0.00493474
0.00482987
0.00478689
0.00478037
0.00477038
0.0047558
0.00474288
0.00473269
0.0047249
0.00471963
0.00471724
0.00471818
0.00472302
0.00473246
0.00474733
0.00476867
0.00479777
0.00483616
0.00488568
0.00494838
0.00502676
0.00512235
0.00523768
0.00536917
0.0055135
0.00566349
0.00576175
0.0051255
0.00465741
0.00493672
0.00491583
0.00481628
0.0047765
0.00477186
0.0047629
0.00474875
0.0047358
0.00472518
0.00471663
0.00471026
0.00470639
0.00470543
0.00470788
0.00471426
0.00472527
0.00474171
0.00476448
0.00479459
0.00483316
0.00488109
0.00493958
0.00500718
0.00508571
0.00516298
0.00524267
0.00529277
0.00526959
0.00509638
0.00463405
0.0049177
0.00490025
0.00480356
0.00476575
0.00476237
0.00475411
0.00474015
0.00472696
0.00471571
0.00470611
0.0046983
0.00469256
0.00468921
0.00468862
0.00469124
0.00469753
0.004708
0.00472321
0.00474366
0.00476978
0.00480149
0.00483881
0.00487859
0.00492152
0.00495292
0.00497875
0.00496903
0.00489934
0.00507195
0.00461328
0.00489993
0.00488507
0.00479067
0.00475452
0.00475214
0.00474436
0.00473042
0.00471676
0.00470464
0.00469379
0.00468423
0.00467625
0.0046701
0.00466605
0.00466436
0.0046653
0.00466914
0.0046761
0.00468621
0.00469933
0.00471467
0.0047315
0.00474573
0.00475786
0.00475252
0.00473848
0.00468661
0.00457789
0.00505331
0.00459633
0.00488479
0.00487158
0.00477865
0.00474358
0.00474181
0.00473416
0.00471995
0.00470565
0.00469245
0.00468005
0.00466853
0.00465807
0.00464884
0.00464098
0.00463462
0.00462988
0.0046268
0.00462525
0.00462493
0.00462529
0.00462512
0.00462319
0.00461517
0.00460138
0.00456724
0.00452206
0.00443956
0.00430713
0.00503876
0.00458264
0.00487213
0.00485993
0.00476781
0.00473327
0.00473173
0.00472396
0.00470923
0.00469399
0.00467949
0.00466542
0.00465176
0.00463861
0.00462608
0.00461424
0.0046031
0.00459259
0.00458252
0.00457259
0.00456223
0.00455064
0.00453633
0.00451787
0.00449099
0.00445594
0.00439954
0.00433074
0.00422688
0.00407876
0.00502771
0.00457201
0.00486197
0.00485021
0.00475842
0.00472399
0.00472229
0.00471406
0.00469855
0.00468222
0.00466628
0.00465034
0.00463437
0.00461843
0.00460255
0.00458671
0.00457078
0.00455456
0.00453774
0.00451985
0.00450017
0.00447771
0.00445089
0.0044182
0.00437575
0.00432362
0.00425037
0.004164
0.00404505
0.00388822
0.00501988
0.00456425
0.00485433
0.0048426
0.00475068
0.00471596
0.00471376
0.00470479
0.00468828
0.00467068
0.00465314
0.00463523
0.0046169
0.00459814
0.00457894
0.00455914
0.00453856
0.00451689
0.00449373
0.00446849
0.00444035
0.00440824
0.0043706
0.00432597
0.00427088
0.00420528
0.00411956
0.00402044
0.00389184
0.00373049
0.00501516
0.0045594
0.00484929
0.00483721
0.00474476
0.00470936
0.00470637
0.00469642
0.00467872
0.00465968
0.00464042
0.0046205
0.0045998
0.00457828
0.00455582
0.00453223
0.00450725
0.00448052
0.00445153
0.00441964
0.00438398
0.0043435
0.00429672
0.00424223
0.00417706
0.00410103
0.0040063
0.00389826
0.00376399
0.00360129
0.00501371
0.00455759
0.00484694
0.00483416
0.00474081
0.0047044
0.00470031
0.00468915
0.00467008
0.00464947
0.00462845
0.00460652
0.00458349
0.00455929
0.00453374
0.0045066
0.00447756
0.0044462
0.00441197
0.0043742
0.00433201
0.00428439
0.00422998
0.0041675
0.0040944
0.00401045
0.00390939
0.0037954
0.00365831
0.00349655
0.00501581
0.004559
0.00484746
0.00483361
0.00473895
0.00470117
0.00469571
0.00468312
0.00466253
0.0046403
0.0046175
0.00459359
0.00456832
0.00454159
0.00451317
0.00448278
0.00445007
0.00441457
0.00437572
0.00433284
0.00428509
0.00423149
0.00417082
0.00410193
0.00402271
0.00393284
0.00382749
0.00370975
0.00357181
0.00341245
0.00502199
0.00456404
0.00485115
0.00483571
0.00473925
0.00469974
0.00469261
0.00467841
0.00465621
0.00463232
0.00460775
0.00458193
0.00455458
0.00452551
0.00449449
0.0044612
0.00442524
0.00438612
0.00434328
0.00429605
0.00424363
0.00418512
0.00411941
0.00404548
0.0039616
0.0038674
0.00375925
0.00363933
0.0035018
0.00334566
0.00503301
0.00457314
0.00485809
0.00484039
0.00474158
0.00470001
0.004691
0.00467504
0.00465116
0.00462562
0.00459936
0.00457176
0.00454249
0.00451135
0.00447803
0.0044422
0.00440343
0.00436123
0.00431503
0.00426419
0.00420794
0.00414545
0.00407575
0.00399792
0.00391057
0.00381329
0.00370341
0.00358237
0.00344595
0.00329339
0.0050508
0.00458733
0.00486917
0.00484827
0.00474642
0.0047021
0.00469082
0.00467295
0.00464736
0.00462022
0.0045924
0.0045632
0.00453226
0.00449931
0.00446404
0.00442606
0.00438494
0.00434019
0.00429125
0.00423748
0.00417817
0.00411256
0.00403978
0.00395901
0.00386913
0.00376971
0.00365883
0.00353736
0.00340237
0.00325338
0.00507401
0.00460421
0.00488133
0.00485689
0.00475178
0.00470484
0.00469149
0.00467184
0.00464467
0.00461608
0.0045869
0.00455634
0.00452399
0.00448955
0.00445268
0.00441297
0.00436998
0.00432321
0.00427211
0.00421607
0.00415441
0.00408643
0.00401136
0.00392844
0.00383679
0.00373595
0.00362457
0.0035031
0.00336957
0.00322387
0.0051223
0.00463604
0.00490403
0.00487135
0.00476034
0.00470954
0.00469371
0.00467181
0.00464305
0.00461319
0.00458287
0.00455122
0.00451777
0.00448218
0.00444409
0.00440308
0.00435869
0.00431043
0.00425775
0.00420005
0.00413669
0.00406702
0.00399033
0.00390595
0.00381313
0.00371142
0.00359987
0.00347867
0.00334645
0.0032035
0.00515581
0.00465304
0.00491265
0.00487768
0.00476458
0.00471184
0.00469424
0.00467156
0.00464197
0.00461131
0.00458022
0.00454783
0.00451363
0.00447728
0.00443838
0.0043965
0.0043512
0.00430196
0.00424824
0.00418946
0.00412502
0.00405428
0.00397658
0.0038913
0.00379781
0.00369566
0.00358415
0.00346343
0.00333238
0.00319179
0.00531577
0.00471192
0.00494501
0.00489041
0.0047724
0.0047171
0.00469662
0.00467212
0.00464172
0.00461053
0.00457898
0.00454619
0.00451161
0.00447487
0.00443557
0.00439327
0.00434752
0.0042978
0.00424358
0.00418429
0.00411934
0.0040481
0.00396995
0.0038843
0.00379053
0.00368822
0.00357684
0.00345652
0.00332672
0.00318851
0.00751707
0.00610233
0.00540351
0.0047239
0.00386415
0.00301992
0.00187302
-7.32739e-05
-0.00162832
-0.00982799
0.00626575
0.00523893
0.00469793
0.00407313
0.00317913
0.00245728
0.000802868
3.17306e-05
-0.00264769
-0.00432736
0.00585502
0.00516724
0.00465326
0.00402809
0.00329488
0.00235115
0.00134088
-0.000172675
-0.00138423
-0.00313935
0.0052127
0.00459695
0.0040757
0.00348183
0.00271532
0.00199378
0.000809736
0.000180804
-0.00114095
-0.00190343
0.00483765
0.00439362
0.0039372
0.00342098
0.00280993
0.00208221
0.00126243
0.000379202
-0.000390799
-0.000906691
0.00446839
0.00405079
0.00358749
0.00308307
0.00248739
0.00185797
0.00110442
0.000504605
-0.000116888
-0.000573871
0.00418262
0.00383333
0.00342431
0.00298724
0.00248626
0.00191606
0.00132947
0.000794985
0.00031001
1.58124e-05
0.00393799
0.00361796
0.00322825
0.00281856
0.00235826
0.00186053
0.0013604
0.000926271
0.000543643
0.000283341
0.00373737
0.00345117
0.00309746
0.00272743
0.00233046
0.00190781
0.0014899
0.0011186
0.000797117
0.000576867
0.00357132
0.00331152
0.00298516
0.0026477
0.00229631
0.00192772
0.00156703
0.00124786
0.000975905
0.000784173
0.00343654
0.00319902
0.00290087
0.00259739
0.00228668
0.00196489
0.00165154
0.00137243
0.00113287
0.000956336
0.00332918
0.00310831
0.00283607
0.00256231
0.00228416
0.00199863
0.00172139
0.00147271
0.00125715
0.00109194
0.00324504
0.00303697
0.00278872
0.00254028
0.00228871
0.00203216
0.00178326
0.00155777
0.00135922
0.00120133
0.00318005
0.00298256
0.00275493
0.00252719
0.00229697
0.00206322
0.00183621
0.00162817
0.00144204
0.00128918
0.00313069
0.00294265
0.00273202
0.00252073
0.00230742
0.0020915
0.0018813
0.0016863
0.00150921
0.00135956
0.00309407
0.00291456
0.00271763
0.00251909
0.00231886
0.00211669
0.00191925
0.00173386
0.00156335
0.00141547
0.00306796
0.00289582
0.00270972
0.00252081
0.00233035
0.00213859
0.00195072
0.00177234
0.00160655
0.0014593
0.0030505
0.00288452
0.00270696
0.00252516
0.00234158
0.00215712
0.00197597
0.00180245
0.00163988
0.00149233
0.00304068
0.00287878
0.00270704
0.00253
0.00235102
0.00217149
0.00199495
0.00182459
0.00166412
0.00151507
0.0030415
0.00288422
0.00271635
0.00254193
0.00236509
0.00218823
0.00201418
0.00184553
0.00168562
0.00153554
-0.0054118
-0.0043421
-0.00317486
-0.00154202
-0.000578457
5.95661e-05
0.000437484
0.000640697
0.000738917
0.000777445
0.00078309
0.000771033
0.000749661
0.000723545
0.000695155
0.000665811
0.000636213
0.000606713
0.000577472
0.000548551
0.000519965
0.000491706
0.000463759
0.000436101
0.0004087
0.000381519
0.000354528
0.000327701
0.000301022
0.000274476
0.00024805
0.000221727
0.000195488
0.000169316
0.000143194
0.000117114
9.10703e-05
6.50371e-05
3.90304e-05
1.30254e-05
-0.00514951
-0.00456374
-0.0032853
-0.00155355
-0.000580333
7.06719e-05
0.000445616
0.000642542
0.00073629
0.000772592
0.000777563
0.00076568
0.000744856
0.000719401
0.000691663
0.000662905
0.000633804
0.000604718
0.000575818
0.000547174
0.000518813
0.000490744
0.000462958
0.000435431
0.000408135
0.00038104
0.00035412
0.000327355
0.000300729
0.000274229
0.000247843
0.000221553
0.000195341
0.000169191
0.000143087
0.000117026
9.09985e-05
6.49827e-05
3.89933e-05
1.30106e-05
-0.00768408
-0.0058474
-0.00375327
-0.00160632
-0.00058059
0.000102175
0.000468448
0.000651298
0.000735498
0.000766944
0.000770141
0.000758146
0.00073797
0.000713422
0.000686609
0.000658695
0.000630319
0.000601837
0.000573435
0.0005452
0.000517172
0.000489375
0.000461814
0.000434472
0.000407327
0.000380356
0.000353541
0.000326864
0.000300313
0.000273878
0.000247546
0.000221302
0.000195128
0.000169012
0.000142938
0.000116904
9.09021e-05
6.49112e-05
3.89449e-05
1.2991e-05
-0.00780159
-0.00671074
-0.00409823
-0.00166718
-0.000547937
0.000164922
0.000509675
0.000669009
0.00073842
0.000762431
0.000762693
0.000750123
0.000730456
0.000706823
0.000680997
0.000654003
0.000626429
0.000598619
0.000570771
0.000542991
0.000515337
0.000487846
0.000460533
0.000433395
0.000406418
0.000379588
0.00035289
0.000326312
0.000299845
0.000273482
0.00024721
0.000221018
0.000194888
0.000168811
0.000142773
0.00011677
9.07979e-05
6.48355e-05
3.8897e-05
1.2974e-05
-0.0129428
-0.0104782
-0.00532242
-0.00182527
-0.00046846
0.000260546
0.000563923
0.000689964
0.000740875
0.000756462
0.000753769
0.00074085
0.000721938
0.000699426
0.000674751
0.000648802
0.000622128
0.000595067
0.000567833
0.000540555
0.000513313
0.000486157
0.000459118
0.000432204
0.000405412
0.000378736
0.000352168
0.000325699
0.000299325
0.00027304
0.000246836
0.000220701
0.000194621
0.000168588
0.000142589
0.000116623
9.06841e-05
6.47538e-05
3.88465e-05
1.29566e-05
-0.0158425
-0.0142224
-0.00653098
-0.00200978
-0.000304319
0.000380901
0.000619699
0.000706963
0.00073879
0.000746916
0.000742389
0.000729944
0.000712319
0.000691264
0.000667951
0.000643182
0.000617497
0.000591251
0.000564681
0.000537941
0.000511138
0.00048434
0.000457592
0.000430918
0.000404325
0.000377814
0.000351384
0.000325033
0.000298759
0.00027256
0.000246428
0.000220355
0.000194329
0.000168345
0.00014239
0.000116463
9.05616e-05
6.46666e-05
3.87932e-05
1.29383e-05
-0.0221949
-0.0159743
-0.00828733
-0.00244087
-0.000350765
0.000357538
0.000614869
0.000696727
0.000722998
0.000730343
0.000727308
0.000717019
0.000701544
0.000682397
0.000660689
0.000637237
0.000612623
0.000587243
0.000561371
0.000535195
0.000508848
0.000482424
0.000455981
0.000429557
0.000403171
0.000376834
0.00035055
0.000324323
0.000298154
0.000272044
0.000245989
0.000219983
0.000194016
0.000168084
0.000142175
0.000116292
9.04313e-05
6.4574e-05
3.87366e-05
1.2919e-05
-0.014092
-0.0123369
-0.00707191
-0.00172206
0.000729696
0.000967611
0.000805385
0.000722021
0.000707936
0.000710111
0.000709366
0.000702301
0.000689688
0.000672854
0.000652977
0.000630972
0.000607504
0.000583037
0.000557893
0.000532303
0.000506432
0.000480395
0.000454269
0.000428107
0.00040194
0.000375785
0.000349655
0.000323559
0.000297502
0.000271488
0.000245515
0.00021958
0.000193676
0.0001678
0.000141944
0.000116107
9.02905e-05
6.4474e-05
3.86754e-05
1.28982e-05
-0.00409696
-0.00441085
-0.00449959
-0.00291399
-0.00120689
-0.000211331
0.000285001
0.000521403
0.000625675
0.000669089
0.000684458
0.000685088
0.000676846
0.000662864
0.000645026
0.000624551
0.000602264
0.000578725
0.000554319
0.000529321
0.000503929
0.000478284
0.000452482
0.000426588
0.000400644
0.000374678
0.000348707
0.000322747
0.000296807
0.000270893
0.000245008
0.000219149
0.000193312
0.000167496
0.000141695
0.00011591
9.01394e-05
6.43664e-05
3.86097e-05
1.28759e-05
-0.00504264
-0.00494957
-0.00287943
-0.00115268
-0.000131011
0.000294096
0.000455583
0.000545624
0.000608923
0.000647152
0.000665477
0.000669917
0.000664873
0.000653351
0.000637383
0.000618343
0.000597171
0.000574509
0.000550803
0.000526371
0.00050144
0.000476173
0.000450685
0.000425053
0.00039933
0.00037355
0.000347738
0.000321914
0.000296092
0.00027028
0.000244483
0.000218702
0.000192935
0.000167182
0.000141437
0.000115704
8.99822e-05
6.42545e-05
3.85412e-05
1.28527e-05
-0.00143896
-0.00122652
-0.00146909
-0.00108786
-0.000531144
-4.03102e-05
0.000288398
0.000471244
0.000569381
0.000621781
0.000647363
0.000656172
0.000654081
0.000644702
0.000630353
0.000612567
0.000592379
0.000570501
0.000547429
0.000523514
0.00049901
0.000474097
0.000448906
0.000423525
0.000398014
0.000372416
0.00034676
0.000321071
0.000295365
0.000269655
0.000243947
0.000218245
0.000192548
0.000166859
0.000141173
0.000115492
8.98203e-05
6.41391e-05
3.84707e-05
1.28287e-05
-0.0014192
-0.0015673
-0.00108493
-0.000581307
-0.000136158
0.000155198
0.000348458
0.000478175
0.000560445
0.00060945
0.000635538
0.000645866
0.000645368
0.000637397
0.000624226
0.00060741
0.000588018
0.000566795
0.000544265
0.000520803
0.000496678
0.000472088
0.000447171
0.000422023
0.000396713
0.000371288
0.000345783
0.000320225
0.000294634
0.000269024
0.000243405
0.000217782
0.000192156
0.000166531
0.000140904
0.000115277
8.96552e-05
6.40212e-05
3.83987e-05
1.28043e-05
-0.00051623
-0.000427605
-0.000450483
-0.000287544
-3.81605e-05
0.000193905
0.00036507
0.00048164
0.000557216
0.000603292
0.000628464
0.000638896
0.000638944
0.000631662
0.000619185
0.00060301
0.000584189
0.000563464
0.000541367
0.000518279
0.000494479
0.000470171
0.000445499
0.000420565
0.000395441
0.000370179
0.000344817
0.000319384
0.000293904
0.000268393
0.000242861
0.000217317
0.000191762
0.000166201
0.000140632
0.000115059
8.94881e-05
6.39019e-05
3.83258e-05
1.27795e-05
-2.96395e-05
-9.87841e-05
-0.000110341
-2.36791e-05
0.000135187
0.000291169
0.000414487
0.000504344
0.000565905
0.000604863
0.000626564
0.000635448
0.000634947
0.000627615
0.000615328
0.000599447
0.000580954
0.000560559
0.000538773
0.000515974
0.000492438
0.000468368
0.000443909
0.000419165
0.00039421
0.000369098
0.000343869
0.000318557
0.000293183
0.000267767
0.000242321
0.000216854
0.000191369
0.000165871
0.00014036
0.000114841
8.93204e-05
6.3782e-05
3.82526e-05
1.27546e-05
0.000247895
0.000217289
0.00017366
0.000191683
0.000277781
0.000379741
0.000467087
0.000533948
0.000581436
0.000612072
0.000628972
0.000635173
0.000633246
0.00062522
0.000612659
0.000596739
0.000578338
0.0005581
0.000536505
0.000513906
0.00049057
0.000466692
0.000442412
0.000417833
0.000393028
0.000368053
0.000342948
0.000317748
0.000292476
0.000267152
0.000241789
0.000216397
0.00019098
0.000165544
0.00014009
0.000114624
8.91535e-05
6.36626e-05
3.81795e-05
1.27297e-05
0.000522136
0.000468223
0.00039791
0.000373604
0.000408537
0.000467496
0.000523581
0.000568896
0.000602143
0.000623686
0.0006349
0.000637609
0.000633583
0.000624338
0.000611105
0.000594852
0.000576324
0.000556085
0.000534563
0.000512081
0.000488884
0.000465151
0.000441016
0.000416576
0.000391903
0.00036705
0.00034206
0.000316964
0.000291788
0.000266551
0.000241268
0.000215948
0.000190598
0.000165222
0.000139824
0.00011441
8.89887e-05
6.35445e-05
3.81073e-05
1.27052e-05
0.000715322
0.000652786
0.000572023
0.000522831
0.000522657
0.000548943
0.000579464
0.000605932
0.000625833
0.00063827
0.000643428
0.000642175
0.0006356
0.000624748
0.000610532
0.000593703
0.000574864
0.000554486
0.000532934
0.000510492
0.000487375
0.000463745
0.000439722
0.000415398
0.000390838
0.000366095
0.000341208
0.000316209
0.000291123
0.00026597
0.000240763
0.000215512
0.000190225
0.000164908
0.000139564
0.0001142
8.88271e-05
6.34287e-05
3.80363e-05
1.2681e-05
0.000874761
0.000801604
0.000712747
0.000646779
0.000621806
0.000623067
0.000632739
0.00064302
0.000650838
0.000654586
0.000653675
0.000648267
0.00063889
0.000626183
0.000610764
0.000593178
0.000573884
0.000553255
0.000531589
0.000509121
0.000486035
0.000462469
0.000438531
0.000414299
0.000389837
0.000365191
0.000340397
0.000315488
0.000290485
0.00026541
0.000240275
0.000215091
0.000189864
0.000164603
0.000139311
0.000113996
8.86699e-05
6.33159e-05
3.79673e-05
1.26576e-05
0.00100052
0.000919494
0.000825696
0.000748956
0.000706657
0.000688986
0.000681921
0.000678584
0.000675781
0.000671545
0.000664827
0.000655292
0.000643034
0.000628349
0.000611598
0.000593138
0.00057329
0.00055233
0.000530485
0.000507941
0.000484845
0.000461313
0.000437435
0.000413279
0.000388899
0.000364338
0.000339629
0.000314801
0.000289878
0.000264875
0.000239808
0.000214687
0.000189518
0.00016431
0.000139068
0.0001138
8.85183e-05
6.32071e-05
3.79006e-05
1.26349e-05
0.00110168
0.00101398
0.000916747
0.000832985
0.000778469
0.000746504
0.000726135
0.00071152
0.000699587
0.000688237
0.000676161
0.000662698
0.000647621
0.000630947
0.000612821
0.000593433
0.000572978
0.000551639
0.000529574
0.000506919
0.000483785
0.000460264
0.000436427
0.000412331
0.000388022
0.000363537
0.000338905
0.000314153
0.000289302
0.000264369
0.000239365
0.000214302
0.000189187
0.00016403
0.000138835
0.000113612
8.83732e-05
6.3103e-05
3.78367e-05
1.26132e-05
0.00118265
0.00108931
0.00098972
0.00090153
0.000838416
0.000795706
0.000764873
0.000741061
0.00072144
0.000703918
0.000687056
0.000669992
0.000652269
0.000633692
0.000614223
0.000593911
0.00057284
0.000551105
0.000528801
0.000506017
0.000482829
0.000459305
0.000435498
0.000411452
0.000387205
0.000362787
0.000338226
0.000313544
0.000288761
0.000263891
0.000238947
0.000213939
0.000188875
0.000163765
0.000138615
0.000113434
8.82356e-05
6.30041e-05
3.7776e-05
1.25926e-05
0.00124705
0.00114874
0.00104754
0.000956726
0.000887599
0.000836848
0.000797879
0.000766691
0.000740732
0.000717992
0.00069699
0.000676743
0.000656637
0.000636318
0.000615605
0.000594425
0.000572766
0.000550649
0.000528111
0.000505197
0.000481952
0.00045842
0.000434636
0.000410635
0.000386444
0.000362089
0.000337593
0.000312976
0.000288256
0.000263446
0.000238557
0.000213599
0.000188583
0.000163517
0.000138409
0.000113267
8.81062e-05
6.2911e-05
3.77189e-05
1.25732e-05
0.00129753
0.0011947
0.00109243
0.00100025
0.000926975
0.000870256
0.000825054
0.000788072
0.000757018
0.000729997
0.000705536
0.000682585
0.000660427
0.000638591
0.000616784
0.000594837
0.000572656
0.000550198
0.000527451
0.000504422
0.000481129
0.000457591
0.000433832
0.000409873
0.000385735
0.000361439
0.000337005
0.00031245
0.000287788
0.000263033
0.000238195
0.000213285
0.000188312
0.000163288
0.000138218
0.000113112
8.79856e-05
6.2824e-05
3.76656e-05
1.2555e-05
0.00133625
0.00122908
0.0011261
0.00103341
0.000957338
0.000896262
0.000846393
0.000804989
0.000769978
0.00073958
0.000712355
0.000687219
0.000663389
0.000640309
0.000617605
0.000595028
0.00057242
0.000549686
0.000526775
0.00050366
0.000480335
0.000456804
0.000433075
0.000409161
0.000385076
0.000360839
0.000336464
0.000311966
0.000287359
0.000262655
0.000237864
0.000212998
0.000188065
0.000163078
0.000138043
0.00011297
8.78741e-05
6.27433e-05
3.76159e-05
1.25379e-05
0.00136491
0.00125369
0.00115007
0.00105728
0.000979347
0.000915168
0.00086193
0.000817305
0.000779379
0.000746471
0.000717178
0.000690403
0.000665315
0.000641305
0.000617932
0.000594892
0.000571978
0.000549056
0.00052604
0.000502881
0.000479553
0.000456046
0.000432358
0.000408495
0.000384467
0.000360287
0.00033597
0.000311527
0.000286971
0.000262314
0.000237566
0.000212739
0.000187843
0.000162889
0.000137885
0.00011284
8.77722e-05
6.26688e-05
3.75695e-05
1.25215e-05
0.00138271
0.00126848
0.00116482
0.00107238
0.000993363
0.000927146
0.000871671
0.0008249
0.000785031
0.000750453
0.000719792
0.00069194
0.000666037
0.000641432
0.000617646
0.000594334
0.000571255
0.000548246
0.000525199
0.000502048
0.000478754
0.000455295
0.000431664
0.000407862
0.000383896
0.000359777
0.000335517
0.000311127
0.00028662
0.000262007
0.000237299
0.000212508
0.000187645
0.00016272
0.000137743
0.000112724
8.76786e-05
6.25993e-05
3.75234e-05
1.25026e-05
0.00139817
0.00127775
0.00117242
0.00107977
0.000999959
0.000932569
0.000875903
0.00082803
0.000787182
0.000751778
0.000720456
0.000692098
0.000665827
0.000640969
0.000617021
0.000593618
0.000570501
0.00054749
0.000524467
0.000501357
0.000478113
0.000454709
0.000431135
0.000407388
0.000383475
0.000359405
0.000335189
0.00031084
0.000286368
0.000261787
0.000237109
0.000212345
0.000187505
0.000162602
0.000137644
0.000112642
8.76124e-05
6.25496e-05
3.74899e-05
1.24881e-05
)
;

boundaryField
{
    inlet
    {
        type            zeroGradient;
    }
    outlet
    {
        type            fixedValue;
        value           uniform 0;
    }
    lowerWall
    {
        type            zeroGradient;
    }
    upperWall
    {
        type            zeroGradient;
    }
    defaultFaces
    {
        type            empty;
    }
}


// ************************************************************************* //
