/*--------------------------------*- C++ -*----------------------------------*\
| =========                 |                                                 |
| \\      /  F ield         | OpenFOAM: The Open Source CFD Toolbox           |
|  \\    /   O peration     | Version:  2112                                  |
|   \\  /    A nd           | Website:  www.openfoam.com                      |
|    \\/     M anipulation  |                                                 |
\*---------------------------------------------------------------------------*/
FoamFile
{
    version     2.0;
    format      ascii;
    arch        "LSB;label=32;scalar=64";
    class       surfaceScalarField;
    location    "0.02";
    object      phi;
}
// * * * * * * * * * * * * * * * * * * * * * * * * * * * * * * * * * * * * * //

dimensions      [0 3 -1 0 0 0 0];

oriented        oriented;

internalField   nonuniform List<scalar> 
3653
(
9.91544e-07
8.45628e-09
9.81377e-07
1.01662e-08
9.74153e-07
7.22476e-09
9.69776e-07
4.37666e-09
9.66973e-07
2.80277e-09
9.65014e-07
1.95952e-09
9.63534e-07
1.47945e-09
9.62289e-07
1.2457e-09
9.61118e-07
1.17072e-09
9.5993e-07
1.1883e-09
9.58657e-07
1.27225e-09
9.57247e-07
1.41057e-09
9.55644e-07
1.60255e-09
9.53792e-07
1.85177e-09
9.5163e-07
2.16292e-09
9.49079e-07
2.55026e-09
9.4605e-07
3.02909e-09
9.42429e-07
3.62094e-09
9.3807e-07
4.3589e-09
9.32785e-07
5.28511e-09
9.26323e-07
6.46272e-09
9.18342e-07
7.98036e-09
9.08342e-07
1.00004e-08
8.95661e-07
1.26812e-08
8.78936e-07
1.67244e-08
8.57086e-07
2.18499e-08
8.24323e-07
3.27637e-08
7.81803e-07
4.25198e-08
6.99083e-07
8.27201e-08
1.01628e-07
5.97454e-07
1.00312e-06
5.33369e-09
1.00544e-06
7.85263e-09
1.0057e-06
6.96043e-09
1.00488e-06
5.19455e-09
1.00382e-06
3.86146e-09
1.00275e-06
3.03165e-09
1.00168e-06
2.5512e-09
1.00061e-06
2.31304e-09
9.99527e-07
2.25647e-09
9.98383e-07
2.33217e-09
9.97137e-07
2.51878e-09
9.95742e-07
2.80546e-09
9.94153e-07
3.19122e-09
9.92316e-07
3.68861e-09
9.9017e-07
4.3089e-09
9.87644e-07
5.07631e-09
9.8465e-07
6.02282e-09
9.8108e-07
7.19092e-09
9.76798e-07
8.64163e-09
9.71628e-07
1.04549e-08
9.65344e-07
1.27461e-08
9.57644e-07
1.56813e-08
9.48125e-07
1.95185e-08
9.36218e-07
2.45885e-08
9.21294e-07
3.16487e-08
9.02132e-07
4.10114e-08
8.78701e-07
5.61947e-08
8.48579e-07
7.26423e-08
8.18968e-07
1.1233e-07
1.35043e-07
7.85553e-07
1.00212e-06
3.21275e-09
1.00384e-06
6.13762e-09
1.00445e-06
6.34411e-09
1.00417e-06
5.48043e-09
1.0035e-06
4.52784e-09
1.00271e-06
3.82439e-09
1.00186e-06
3.40245e-09
1.00096e-06
3.21103e-09
1e-06
3.21015e-09
9.9897e-07
3.36617e-09
9.97827e-07
3.66174e-09
9.96538e-07
4.0948e-09
9.95062e-07
4.6677e-09
9.93354e-07
5.39633e-09
9.91361e-07
6.30161e-09
9.89021e-07
7.41672e-09
9.86257e-07
8.78645e-09
9.82977e-07
1.04706e-08
9.79071e-07
1.25485e-08
9.74396e-07
1.51292e-08
9.68778e-07
1.83643e-08
9.61999e-07
2.24603e-08
9.538e-07
2.77181e-08
9.4385e-07
3.45381e-08
9.31878e-07
4.36207e-08
9.17326e-07
5.55632e-08
9.0093e-07
7.25905e-08
8.79934e-07
9.36386e-08
8.63177e-07
1.29087e-07
1.61888e-07
8.36332e-07
1.00105e-06
2.1672e-09
1.00223e-06
4.95532e-09
1.00286e-06
5.70782e-09
1.00297e-06
5.37913e-09
1.00271e-06
4.78357e-09
1.00224e-06
4.2904e-09
1.00164e-06
4.00207e-09
1.00094e-06
3.91164e-09
1.00015e-06
3.99957e-09
9.99265e-07
4.25485e-09
9.98259e-07
4.6678e-09
9.97112e-07
5.24187e-09
9.95791e-07
5.98852e-09
9.94262e-07
6.92549e-09
9.92481e-07
8.08315e-09
9.90394e-07
9.50347e-09
9.87945e-07
1.12357e-08
9.85062e-07
1.33534e-08
9.81659e-07
1.5951e-08
9.77638e-07
1.91501e-08
9.72886e-07
2.31167e-08
9.67273e-07
2.80729e-08
9.60669e-07
3.43222e-08
9.52943e-07
4.22647e-08
9.4407e-07
5.24936e-08
9.34021e-07
6.56121e-08
9.23607e-07
8.30039e-08
9.12824e-07
1.04422e-07
9.07096e-07
1.34815e-07
1.64101e-07
9.04884e-07
1.00065e-06
1.51628e-09
1.00149e-06
4.11718e-09
1.00205e-06
5.14863e-09
1.00227e-06
5.15599e-09
1.00222e-06
4.83971e-09
1.00195e-06
4.55155e-09
1.00155e-06
4.40639e-09
1.00103e-06
4.43236e-09
1.0004e-06
4.62447e-09
9.99675e-07
4.98384e-09
9.98831e-07
5.51213e-09
9.97857e-07
6.21558e-09
9.9673e-07
7.11559e-09
9.9542e-07
8.23552e-09
9.93898e-07
9.60493e-09
9.92129e-07
1.12727e-08
9.90066e-07
1.32986e-08
9.87661e-07
1.57588e-08
9.84861e-07
1.87505e-08
9.81611e-07
2.24003e-08
9.77853e-07
2.68747e-08
9.73538e-07
3.23877e-08
9.68646e-07
3.92146e-08
9.63203e-07
4.77077e-08
9.57377e-07
5.83191e-08
9.51418e-07
7.15713e-08
9.46295e-07
8.81276e-08
9.4229e-07
1.08427e-07
9.4317e-07
1.33935e-07
1.61873e-07
9.45398e-07
1.00042e-06
1.09872e-09
1.00105e-06
3.48349e-09
1.00155e-06
4.64502e-09
1.00184e-06
4.8727e-09
1.00191e-06
4.76395e-09
1.00181e-06
4.6513e-09
1.00157e-06
4.64576e-09
1.00122e-06
4.78784e-09
1.00076e-06
5.08449e-09
1.0002e-06
5.54163e-09
9.99538e-07
6.17569e-09
9.98755e-07
6.99859e-09
9.97845e-07
8.02579e-09
9.96792e-07
9.28843e-09
9.9557e-07
1.08264e-08
9.94157e-07
1.26864e-08
9.92526e-07
1.49288e-08
9.90655e-07
1.76301e-08
9.88518e-07
2.08873e-08
9.86095e-07
2.48234e-08
9.83378e-07
2.95917e-08
9.80384e-07
3.53814e-08
9.77175e-07
4.2424e-08
9.73878e-07
5.10048e-08
9.70756e-07
6.1441e-08
9.68173e-07
7.41539e-08
9.66943e-07
8.93579e-08
9.67611e-07
1.07759e-07
9.72446e-07
1.291e-07
1.52993e-07
9.81327e-07
1.0003e-06
7.94461e-10
1.00082e-06
2.96716e-09
1.00129e-06
4.17986e-09
1.00161e-06
4.54714e-09
1.00178e-06
4.59363e-09
1.00181e-06
4.62373e-09
1.00171e-06
4.74121e-09
1.00152e-06
4.98493e-09
1.00122e-06
5.37865e-09
1.00083e-06
5.93181e-09
1.00035e-06
6.65452e-09
9.99784e-07
7.56829e-09
9.99113e-07
8.69678e-09
9.98331e-07
1.00702e-08
9.97429e-07
1.17284e-08
9.96399e-07
1.37164e-08
9.95232e-07
1.60963e-08
9.93919e-07
1.89425e-08
9.92462e-07
2.23446e-08
9.90871e-07
2.64139e-08
9.8918e-07
3.12831e-08
9.87451e-07
3.71104e-08
9.85795e-07
4.40796e-08
9.84391e-07
5.24093e-08
9.83533e-07
6.22989e-08
9.83609e-07
7.40776e-08
9.85317e-07
8.76497e-08
9.89225e-07
1.03851e-07
9.96951e-07
1.21374e-07
1.41653e-07
1.00829e-06
1.00024e-06
5.49925e-10
1.00071e-06
2.50538e-09
1.00116e-06
3.72444e-09
1.00153e-06
4.18008e-09
1.00178e-06
4.33897e-09
1.00193e-06
4.47902e-09
1.00197e-06
4.70277e-09
1.00191e-06
5.04249e-09
1.00177e-06
5.51726e-09
1.00156e-06
6.14493e-09
1.00127e-06
6.94085e-09
1.00091e-06
7.92599e-09
1.00049e-06
9.1247e-09
9.99988e-07
1.05681e-08
9.9942e-07
1.22957e-08
9.98783e-07
1.43532e-08
9.98082e-07
1.67979e-08
9.97327e-07
1.96978e-08
9.96538e-07
2.31333e-08
9.95751e-07
2.7201e-08
9.95024e-07
3.20101e-08
9.94448e-07
3.76863e-08
9.94159e-07
4.43681e-08
9.94355e-07
5.22134e-08
9.95327e-07
6.13277e-08
9.97443e-07
7.19616e-08
1.00127e-06
8.38236e-08
1.00732e-06
9.77998e-08
1.01671e-06
1.11984e-07
1.28762e-07
1.0296e-06
1.00021e-06
3.35099e-10
1.00066e-06
2.06065e-09
1.00114e-06
3.24467e-09
1.00156e-06
3.75455e-09
1.0019e-06
4.00256e-09
1.00215e-06
4.23525e-09
1.0023e-06
4.54304e-09
1.00239e-06
4.9599e-09
1.0024e-06
5.50436e-09
1.00235e-06
6.19229e-09
1.00225e-06
7.03933e-09
1.00211e-06
8.0681e-09
1.00193e-06
9.30557e-09
1.00172e-06
1.07822e-08
1.00148e-06
1.25329e-08
1.00123e-06
1.46022e-08
1.00099e-06
1.70431e-08
1.00077e-06
1.99155e-08
1.00061e-06
2.32887e-08
1.00057e-06
2.72423e-08
1.00072e-06
3.18634e-08
1.00116e-06
3.72481e-08
1.00203e-06
4.34934e-08
1.00354e-06
5.07056e-08
1.00594e-06
5.89236e-08
1.00958e-06
6.83253e-08
1.01487e-06
7.85293e-08
1.02233e-06
9.03441e-08
1.03254e-06
1.01773e-07
1.15549e-07
1.04575e-06
1.00021e-06
1.30068e-10
1.00067e-06
1.59905e-09
1.00119e-06
2.7205e-09
1.00168e-06
3.26412e-09
1.0021e-06
3.58008e-09
1.00245e-06
3.88927e-09
1.00272e-06
4.27038e-09
1.00293e-06
4.75128e-09
1.00309e-06
5.34768e-09
1.0032e-06
6.07716e-09
1.00329e-06
6.95573e-09
1.00335e-06
8.00406e-09
1.00341e-06
9.24901e-09
1.00347e-06
1.07195e-08
1.00355e-06
1.24491e-08
1.00368e-06
1.44794e-08
1.00386e-06
1.68564e-08
1.00415e-06
1.9631e-08
1.00457e-06
2.28618e-08
1.0052e-06
2.66121e-08
1.00612e-06
3.0949e-08
1.00742e-06
3.59423e-08
1.00926e-06
4.16544e-08
1.01182e-06
4.81505e-08
1.01532e-06
5.54248e-08
1.02005e-06
6.35957e-08
1.02632e-06
7.22569e-08
1.03456e-06
8.2103e-08
1.04504e-06
9.12956e-08
1.02372e-07
1.05821e-06
1.00021e-06
-7.92146e-11
1.00071e-06
1.09849e-09
1.0013e-06
2.12972e-09
1.00187e-06
2.69208e-09
1.00238e-06
3.06929e-09
1.00283e-06
3.44765e-09
1.0032e-06
3.89206e-09
1.00353e-06
4.42553e-09
1.00382e-06
5.05994e-09
1.00408e-06
5.8131e-09
1.00434e-06
6.70125e-09
1.0046e-06
7.74323e-09
1.00488e-06
8.96592e-09
1.0052e-06
1.0396e-08
1.00559e-06
1.20651e-08
1.00606e-06
1.40102e-08
1.00664e-06
1.62703e-08
1.00738e-06
1.88887e-08
1.00833e-06
2.19131e-08
1.00955e-06
2.53921e-08
1.01113e-06
2.93756e-08
1.01316e-06
3.39117e-08
1.01578e-06
3.9036e-08
1.01914e-06
4.47818e-08
1.02345e-06
5.11153e-08
1.02894e-06
5.81097e-08
1.03582e-06
6.53723e-08
1.04444e-06
7.3486e-08
1.0549e-06
8.0837e-08
8.96053e-08
1.06767e-06
1.00023e-06
-3.04279e-10
1.00079e-06
5.31547e-10
1.00147e-06
1.45139e-09
1.00213e-06
2.02972e-09
1.00273e-06
2.47046e-09
1.00326e-06
2.91729e-09
1.00373e-06
3.41896e-09
1.00417e-06
3.99528e-09
1.00457e-06
4.65533e-09
1.00497e-06
5.4143e-09
1.00538e-06
6.29024e-09
1.00582e-06
7.30226e-09
1.00631e-06
8.47442e-09
1.00688e-06
9.8326e-09
1.00753e-06
1.14059e-08
1.00832e-06
1.32257e-08
1.00926e-06
1.53245e-08
1.01041e-06
1.77391e-08
1.01182e-06
2.05074e-08
1.01355e-06
2.36657e-08
1.01567e-06
2.72492e-08
1.0183e-06
3.12877e-08
1.02153e-06
3.57982e-08
1.02552e-06
4.07923e-08
1.03042e-06
4.622e-08
1.03641e-06
5.21214e-08
1.04364e-06
5.8142e-08
1.05237e-06
6.47545e-08
1.06261e-06
7.05956e-08
7.74184e-08
1.0748e-06
1.00026e-06
-5.63855e-10
1.00092e-06
-1.28183e-10
1.0017e-06
6.66782e-10
1.00246e-06
1.27032e-09
1.00315e-06
1.7864e-09
1.00376e-06
2.30891e-09
1.00431e-06
2.86723e-09
1.00483e-06
3.47758e-09
1.00533e-06
4.15059e-09
1.00585e-06
4.89891e-09
1.00639e-06
5.74201e-09
1.00699e-06
6.70106e-09
1.00767e-06
7.79708e-09
1.00845e-06
9.05462e-09
1.00936e-06
1.04998e-08
1.01042e-06
1.21593e-08
1.01169e-06
1.40613e-08
1.01319e-06
1.62356e-08
1.01499e-06
1.87109e-08
1.01714e-06
2.15132e-08
1.01972e-06
2.46664e-08
1.02282e-06
2.81873e-08
1.02654e-06
3.20799e-08
1.03099e-06
3.6342e-08
1.03629e-06
4.09161e-08
1.0426e-06
4.58189e-08
1.04999e-06
5.07461e-08
1.05868e-06
5.60677e-08
1.0686e-06
6.06709e-08
6.58992e-08
1.08012e-06
1.00033e-06
-8.90883e-10
1.00111e-06
-9.08227e-10
1.00202e-06
-2.49114e-10
1.00288e-06
4.11435e-10
1.00364e-06
1.02937e-09
1.00431e-06
1.64158e-09
1.00491e-06
2.2589e-09
1.0055e-06
2.89569e-09
1.00608e-06
3.56751e-09
1.00669e-06
4.28802e-09
1.00735e-06
5.07873e-09
1.00809e-06
5.96169e-09
1.00893e-06
6.95739e-09
1.0099e-06
8.08892e-09
1.01102e-06
9.37909e-09
1.01233e-06
1.08503e-08
1.01386e-06
1.25266e-08
1.01567e-06
1.44309e-08
1.01779e-06
1.65847e-08
1.0203e-06
1.90079e-08
1.02325e-06
2.17147e-08
1.02673e-06
2.47123e-08
1.03081e-06
2.79961e-08
1.0356e-06
3.15558e-08
1.04118e-06
3.53335e-08
1.04766e-06
3.93343e-08
1.0551e-06
4.33041e-08
1.06365e-06
4.7522e-08
1.07322e-06
5.11059e-08
5.50482e-08
1.08407e-06
1.00045e-06
-1.3374e-09
1.00141e-06
-1.87193e-09
1.00246e-06
-1.30324e-09
1.00341e-06
-5.35745e-10
1.00422e-06
2.23944e-10
1.00491e-06
9.44417e-10
1.00555e-06
1.62381e-09
1.00617e-06
2.27824e-09
1.0068e-06
2.93209e-09
1.00748e-06
3.60627e-09
1.00824e-06
4.32432e-09
1.00909e-06
5.10926e-09
1.01007e-06
5.98241e-09
1.01119e-06
6.96457e-09
1.01249e-06
8.07582e-09
1.01401e-06
9.33514e-09
1.01577e-06
1.07629e-08
1.01783e-06
1.23763e-08
1.02022e-06
1.419e-08
1.02301e-06
1.62185e-08
1.02626e-06
1.84701e-08
1.03002e-06
2.09466e-08
1.03438e-06
2.36389e-08
1.0394e-06
2.65323e-08
1.04516e-06
2.95729e-08
1.05174e-06
3.276e-08
1.05915e-06
3.58868e-08
1.06752e-06
3.91584e-08
1.07673e-06
4.18976e-08
4.48149e-08
1.08696e-06
1.00068e-06
-2.01403e-09
1.00189e-06
-3.08732e-09
1.00311e-06
-2.52221e-09
1.00412e-06
-1.5469e-09
1.00492e-06
-5.77619e-10
1.00559e-06
2.77269e-10
1.00621e-06
1.00913e-09
1.00682e-06
1.66187e-09
1.00748e-06
2.27528e-09
1.0082e-06
2.88012e-09
1.00903e-06
3.503e-09
1.00997e-06
4.16855e-09
1.01105e-06
4.89841e-09
1.0123e-06
5.71103e-09
1.01376e-06
6.62411e-09
1.01544e-06
7.65329e-09
1.01739e-06
8.81376e-09
1.01964e-06
1.01189e-08
1.02225e-06
1.15798e-08
1.02527e-06
1.32057e-08
1.02874e-06
1.50008e-08
1.03272e-06
1.69632e-08
1.03728e-06
1.90829e-08
1.04246e-06
2.13444e-08
1.04834e-06
2.37021e-08
1.05494e-06
2.61514e-08
1.0623e-06
2.85316e-08
1.07047e-06
3.09874e-08
1.07935e-06
3.30184e-08
3.51123e-08
1.08905e-06
1.00109e-06
-3.10074e-09
1.00269e-06
-4.69163e-09
1.00404e-06
-3.87329e-09
1.00501e-06
-2.51831e-09
1.00572e-06
-1.28464e-09
1.0063e-06
-3.00301e-10
1.00685e-06
4.54167e-10
1.00744e-06
1.07899e-09
1.00809e-06
1.62544e-09
1.00883e-06
2.13486e-09
1.0097e-06
2.63892e-09
1.0107e-06
3.16439e-09
1.01187e-06
3.73193e-09
1.01322e-06
4.35763e-09
1.01479e-06
5.05595e-09
1.0166e-06
5.83979e-09
1.01869e-06
6.71984e-09
1.02111e-06
7.70535e-09
1.02388e-06
8.80451e-09
1.02707e-06
1.00229e-08
1.0307e-06
1.13624e-08
1.03485e-06
1.28205e-08
1.03954e-06
1.43872e-08
1.04484e-06
1.60479e-08
1.05077e-06
1.7769e-08
1.05738e-06
1.9543e-08
1.06466e-06
2.1253e-08
1.07266e-06
2.29916e-08
1.08125e-06
2.44212e-08
2.58317e-08
1.09053e-06
1.00215e-06
-5.24862e-09
1.00433e-06
-6.86926e-09
1.00574e-06
-5.29182e-09
1.00642e-06
-3.18962e-09
1.0068e-06
-1.66503e-09
1.00715e-06
-6.50176e-10
1.00753e-06
6.93891e-11
1.008e-06
6.06216e-10
1.0086e-06
1.02628e-09
1.00934e-06
1.39815e-09
1.01022e-06
1.755e-09
1.01127e-06
2.11952e-09
1.01249e-06
2.50763e-09
1.01392e-06
2.93199e-09
1.01557e-06
3.40299e-09
1.01748e-06
3.92983e-09
1.01968e-06
4.51954e-09
1.02221e-06
5.1776e-09
1.0251e-06
5.90976e-09
1.02841e-06
6.71927e-09
1.03216e-06
7.60586e-09
1.03642e-06
8.56722e-09
1.04121e-06
9.59693e-09
1.04657e-06
1.06831e-08
1.05254e-06
1.18041e-08
1.05913e-06
1.29512e-08
1.06633e-06
1.40502e-08
1.07418e-06
1.51396e-08
1.08255e-06
1.60512e-08
1.68372e-08
1.09155e-06
1.00316e-06
-8.40997e-09
1.00596e-06
-9.66483e-09
1.00705e-06
-6.38234e-09
1.00723e-06
-3.37474e-09
1.00728e-06
-1.70753e-09
1.00739e-06
-7.68504e-10
1.00763e-06
-1.70756e-10
1.00804e-06
2.04533e-10
1.0086e-06
4.63494e-10
1.00932e-06
6.71423e-10
1.01022e-06
8.60992e-10
1.01129e-06
1.04826e-09
1.01255e-06
1.24408e-09
1.01403e-06
1.45665e-09
1.01574e-06
1.69133e-09
1.01772e-06
1.95274e-09
1.01999e-06
2.24499e-09
1.0226e-06
2.57051e-09
1.02558e-06
2.93172e-09
1.02897e-06
3.33039e-09
1.03281e-06
3.76618e-09
1.03714e-06
4.23753e-09
1.04199e-06
4.74124e-09
1.0474e-06
5.27077e-09
1.05339e-06
5.81596e-09
1.05997e-06
6.37123e-09
1.06712e-06
6.90197e-09
1.07485e-06
7.40638e-09
1.08307e-06
7.83477e-09
8.06572e-09
1.09184e-06
9.9159e-07
9.81925e-07
9.75543e-07
9.72168e-07
9.70461e-07
9.69692e-07
9.69521e-07
9.69726e-07
9.70189e-07
9.70861e-07
9.71722e-07
9.7277e-07
9.74014e-07
9.75471e-07
9.77162e-07
9.79115e-07
9.8136e-07
9.8393e-07
9.86862e-07
9.90192e-07
9.93959e-07
9.98196e-07
1.00294e-06
1.00821e-06
1.01402e-06
1.0204e-06
1.0273e-06
1.0347e-06
1.04254e-06
1.0506e-06
6.71426e-07
-7.39717e-08
7.44962e-07
-7.35361e-08
7.95257e-07
-5.02943e-08
8.3591e-07
-4.06537e-08
8.75663e-07
-3.97527e-08
9.17921e-07
-4.22584e-08
9.89888e-07
-7.19665e-08
1.03253e-06
-4.26375e-08
1.34668e-06
-3.14152e-07
-2.20131e-07
1.56681e-06
8.18698e-07
-1.07117e-07
8.44348e-07
-9.91861e-08
8.72031e-07
-7.79773e-08
9.00183e-07
-6.88053e-08
9.40912e-07
-8.04813e-08
9.72643e-07
-7.39901e-08
1.04823e-06
-1.47552e-07
1.15029e-06
-1.44696e-07
1.15143e-06
-3.15298e-07
-4.31106e-07
1.36241e-06
8.60005e-07
-1.30789e-07
8.85265e-07
-1.24446e-07
9.17195e-07
-1.09907e-07
9.53613e-07
-1.05224e-07
9.89285e-07
-1.16153e-07
1.03917e-06
-1.23874e-07
1.09074e-06
-1.99119e-07
1.14106e-06
-1.95015e-07
1.23342e-06
-4.07664e-07
-5.235e-07
1.32582e-06
9.2264e-07
-1.48545e-07
9.36968e-07
-1.38774e-07
9.56398e-07
-1.29337e-07
9.79345e-07
-1.28171e-07
1.00476e-06
-1.41571e-07
1.04314e-06
-1.62253e-07
1.05708e-06
-2.13059e-07
1.13101e-06
-2.68941e-07
1.10716e-06
-3.83818e-07
-4.92036e-07
1.0757e-06
9.54091e-07
-1.57238e-07
9.65597e-07
-1.50281e-07
9.82184e-07
-1.45924e-07
1.00297e-06
-1.48961e-07
1.02617e-06
-1.64765e-07
1.05217e-06
-1.88251e-07
1.07893e-06
-2.39822e-07
1.09776e-06
-2.87774e-07
1.10582e-06
-3.91876e-07
-4.87529e-07
1.10132e-06
9.87874e-07
-1.63786e-07
9.95789e-07
-1.58195e-07
1.00738e-06
-1.57514e-07
1.02116e-06
-1.6274e-07
1.03504e-06
-1.7865e-07
1.05035e-06
-2.0356e-07
1.05537e-06
-2.44843e-07
1.06552e-06
-2.97924e-07
1.048e-06
-3.74356e-07
-4.5114e-07
1.01161e-06
1.01008e-06
-1.65571e-07
1.01385e-06
-1.61973e-07
1.02041e-06
-1.6407e-07
1.02838e-06
-1.70713e-07
1.03617e-06
-1.86434e-07
1.04364e-06
-2.11035e-07
1.0475e-06
-2.48697e-07
1.04458e-06
-2.95007e-07
1.02505e-06
-3.54826e-07
-4.15504e-07
9.89414e-07
1.02858e-06
-1.6455e-07
1.02894e-06
-1.62333e-07
1.03092e-06
-1.66051e-07
1.03349e-06
-1.73277e-07
1.03495e-06
-1.87898e-07
1.03515e-06
-2.11231e-07
1.03032e-06
-2.43868e-07
1.01907e-06
-2.83756e-07
9.94912e-07
-3.30673e-07
-3.79346e-07
9.58754e-07
1.04161e-06
-1.60409e-07
1.03823e-06
-1.58955e-07
1.03563e-06
-1.63445e-07
1.03375e-06
-1.71401e-07
1.03117e-06
-1.8532e-07
1.02634e-06
-2.06395e-07
1.01676e-06
-2.34287e-07
1.00066e-06
-2.67654e-07
9.74781e-07
-3.04798e-07
-3.43327e-07
9.38762e-07
1.05138e-06
-1.53579e-07
1.04507e-06
-1.52641e-07
1.03915e-06
-1.57521e-07
1.0335e-06
-1.65754e-07
1.02674e-06
-1.78559e-07
1.01728e-06
-1.9694e-07
1.0034e-06
-2.20404e-07
9.83765e-07
-2.48021e-07
9.56752e-07
-2.77785e-07
-3.08517e-07
9.21942e-07
1.05834e-06
-1.4425e-07
1.04956e-06
-1.43858e-07
1.0409e-06
-1.48868e-07
1.03193e-06
-1.56784e-07
1.0216e-06
-1.68225e-07
1.00867e-06
-1.84006e-07
9.91829e-07
-2.03569e-07
9.701e-07
-2.26291e-07
9.42529e-07
-2.50215e-07
-2.74758e-07
9.0877e-07
1.06333e-06
-1.32778e-07
1.05243e-06
-1.3296e-07
1.04136e-06
-1.37804e-07
1.02962e-06
-1.45043e-07
1.01644e-06
-1.55037e-07
1.00082e-06
-1.68388e-07
9.81798e-07
-1.8455e-07
9.5866e-07
-2.03152e-07
9.30851e-07
-2.22406e-07
-2.42057e-07
8.9815e-07
1.06688e-06
-1.19536e-07
1.05412e-06
-1.20197e-07
1.04098e-06
-1.24662e-07
1.02699e-06
-1.31054e-07
1.01155e-06
-1.39598e-07
9.93901e-07
-1.50741e-07
9.73323e-07
-1.63972e-07
9.49277e-07
-1.79106e-07
9.21418e-07
-1.94546e-07
-2.10276e-07
8.89636e-07
1.0694e-06
-1.04866e-07
1.05502e-06
-1.05817e-07
1.04014e-06
-1.09782e-07
1.02435e-06
-1.15272e-07
1.00717e-06
-1.22415e-07
9.87998e-07
-1.31568e-07
9.66298e-07
-1.42272e-07
9.41653e-07
-1.54462e-07
9.13847e-07
-1.6674e-07
-1.79273e-07
8.82844e-07
1.07115e-06
-8.90546e-08
1.05542e-06
-9.00925e-08
1.03914e-06
-9.3494e-08
1.02195e-06
-9.80837e-08
1.00344e-06
-1.03905e-07
9.83131e-07
-1.11262e-07
9.60626e-07
-1.19767e-07
9.35586e-07
-1.29422e-07
9.07882e-07
-1.39035e-07
-1.48904e-07
8.77513e-07
1.07234e-06
-7.23472e-08
1.05557e-06
-7.33163e-08
1.03819e-06
-7.61177e-08
1.01993e-06
-7.98254e-08
1.00044e-06
-8.44069e-08
9.79303e-07
-9.01291e-08
9.56227e-07
-9.66913e-08
9.30923e-07
-1.04117e-07
9.03334e-07
-1.11447e-07
-1.19021e-07
8.73451e-07
1.07315e-06
-5.49682e-08
1.05561e-06
-5.57718e-08
1.03744e-06
-5.79516e-08
1.01841e-06
-6.07919e-08
9.98208e-07
-6.42049e-08
9.76498e-07
-6.8419e-08
9.53033e-07
-7.3226e-08
9.27552e-07
-7.86369e-08
9.00072e-07
-8.39663e-08
-8.94649e-08
8.70516e-07
1.07367e-06
-3.70881e-08
1.05561e-06
-3.77097e-08
1.03693e-06
-3.92715e-08
1.01738e-06
-4.1249e-08
9.9673e-07
-4.35523e-08
9.74649e-07
-4.6338e-08
9.50933e-07
-4.95099e-08
9.25338e-07
-5.30419e-08
8.97943e-07
-5.65716e-08
-6.00253e-08
8.68504e-07
1.07332e-06
-1.85691e-08
1.05482e-06
-1.92082e-08
1.03575e-06
-2.0205e-08
1.01581e-06
-2.13021e-08
9.94767e-07
-2.2512e-08
9.72402e-07
-2.39731e-08
9.48438e-07
-2.55465e-08
9.22677e-07
-2.72801e-08
8.95164e-07
-2.90589e-08
-3.06335e-08
8.65772e-07
1.03204e-06
1.01283e-06
9.92622e-07
9.7132e-07
9.48808e-07
9.24835e-07
8.99288e-07
8.72008e-07
8.42949e-07
8.12316e-07
-1.80035e-09
1.80035e-09
7.80058e-08
-7.98061e-08
1.61578e-07
-8.35725e-08
2.56571e-07
-9.49928e-08
3.4071e-07
-8.41387e-08
4.10118e-07
-6.94087e-08
4.6493e-07
-5.48119e-08
5.07251e-07
-4.2321e-08
5.39692e-07
-3.24402e-08
5.64611e-07
-2.49199e-08
5.83895e-07
-1.92831e-08
5.9896e-07
-1.50657e-08
6.10854e-07
-1.18933e-08
6.20337e-07
-9.48367e-09
6.27969e-07
-7.63203e-09
6.34162e-07
-6.19316e-09
6.39225e-07
-5.06238e-09
6.43389e-07
-4.16382e-09
6.46832e-07
-3.44321e-09
6.49692e-07
-2.8606e-09
6.52078e-07
-2.38576e-09
6.54074e-07
-1.99615e-09
6.55749e-07
-1.675e-09
6.57158e-07
-1.409e-09
6.58346e-07
-1.18735e-09
6.59347e-07
-1.00177e-09
6.60193e-07
-8.4594e-10
6.60908e-07
-7.14748e-10
6.61512e-07
-6.03986e-10
6.62022e-07
-5.10219e-10
6.62453e-07
-4.30569e-10
6.62816e-07
-3.62578e-10
6.6312e-07
-3.0418e-10
6.63374e-07
-2.538e-10
6.63584e-07
-2.10089e-10
6.63755e-07
-1.71841e-10
6.63894e-07
-1.39004e-10
6.64001e-07
-1.06144e-10
6.64089e-07
-8.83556e-11
-4.50375e-11
3.46748e-09
-1.66713e-09
8.33328e-08
-1.59671e-07
1.74862e-07
-1.75102e-07
2.81688e-07
-2.01819e-07
3.73751e-07
-1.76201e-07
4.48183e-07
-1.43841e-07
5.06081e-07
-1.1271e-07
5.50422e-07
-8.66615e-08
5.84325e-07
-6.6343e-08
6.10395e-07
-5.09905e-08
6.30628e-07
-3.95155e-08
6.46493e-07
-3.09308e-08
6.59063e-07
-2.44632e-08
6.69119e-07
-1.95403e-08
6.77236e-07
-1.57489e-08
6.83839e-07
-1.27954e-08
6.89246e-07
-1.04698e-08
6.93701e-07
-8.61911e-09
6.97391e-07
-7.13266e-09
7.00459e-07
-5.92922e-09
7.03021e-07
-4.9476e-09
7.05167e-07
-4.14158e-09
7.06968e-07
-3.47637e-09
7.08484e-07
-2.92479e-09
7.09762e-07
-2.46514e-09
7.1084e-07
-2.08041e-09
7.11752e-07
-1.75732e-09
7.12522e-07
-1.4852e-09
7.13173e-07
-1.2553e-09
7.13724e-07
-1.06052e-09
7.14188e-07
-8.94982e-10
7.14579e-07
-7.53682e-10
7.14907e-07
-6.32474e-10
7.15182e-07
-5.27979e-10
7.15409e-07
-4.3744e-10
7.15595e-07
-3.58044e-10
7.15746e-07
-2.8995e-10
7.15862e-07
-2.2156e-10
7.15958e-07
-1.84478e-10
-9.41577e-11
-8.00565e-08
7.83894e-08
3.13109e-08
-2.71039e-07
1.64776e-07
-3.08567e-07
2.88815e-07
-3.25858e-07
3.87643e-07
-2.7503e-07
4.62773e-07
-2.18971e-07
5.18775e-07
-1.68712e-07
5.60621e-07
-1.28508e-07
5.92263e-07
-9.7985e-08
6.16539e-07
-7.52667e-08
6.3543e-07
-5.84064e-08
6.50319e-07
-4.58192e-08
6.62183e-07
-3.63276e-08
6.71729e-07
-2.90867e-08
6.79475e-07
-2.34945e-08
6.85804e-07
-1.91246e-08
6.91008e-07
-1.56737e-08
6.9531e-07
-1.29209e-08
6.98882e-07
-1.0705e-08
7.0186e-07
-8.90707e-09
7.04351e-07
-7.43835e-09
7.0644e-07
-6.23109e-09
7.08197e-07
-5.23338e-09
7.09678e-07
-4.40497e-09
7.10926e-07
-3.71408e-09
7.11982e-07
-3.13558e-09
7.12874e-07
-2.64949e-09
7.13628e-07
-2.2398e-09
7.14267e-07
-1.89356e-09
7.14806e-07
-1.60012e-09
7.15262e-07
-1.35062e-09
7.15646e-07
-1.13758e-09
7.15968e-07
-9.54854e-10
7.16238e-07
-7.97327e-10
7.16461e-07
-6.60848e-10
7.16644e-07
-5.41093e-10
7.16792e-07
-4.38405e-10
7.16906e-07
-3.35251e-10
7.17001e-07
-2.79219e-10
-1.42551e-10
-7.49605e-08
1.5335e-07
1.32871e-08
-3.59286e-07
1.65526e-07
-4.60805e-07
3.0743e-07
-4.67763e-07
4.13741e-07
-3.81341e-07
4.87651e-07
-2.9288e-07
5.39223e-07
-2.20284e-07
5.76376e-07
-1.65661e-07
6.04079e-07
-1.25688e-07
6.25337e-07
-9.65244e-08
6.42002e-07
-7.50715e-08
6.55271e-07
-5.90882e-08
6.65957e-07
-4.70142e-08
6.74641e-07
-3.777e-08
6.81747e-07
-3.06012e-08
6.87598e-07
-2.49756e-08
6.92439e-07
-2.05148e-08
6.96462e-07
-1.69441e-08
6.99818e-07
-1.40609e-08
7.02626e-07
-1.17152e-08
7.04983e-07
-9.79455e-09
7.06964e-07
-8.21285e-09
7.08635e-07
-6.90348e-09
7.10044e-07
-5.8146e-09
7.11235e-07
-4.90535e-09
7.12243e-07
-4.1433e-09
7.13096e-07
-3.50248e-09
7.13818e-07
-2.96204e-09
7.1443e-07
-2.50499e-09
7.14947e-07
-2.11741e-09
7.15384e-07
-1.78765e-09
7.15752e-07
-1.50596e-09
7.16062e-07
-1.2643e-09
7.16321e-07
-1.05594e-09
7.16535e-07
-8.75399e-10
7.16711e-07
-7.16948e-10
7.16854e-07
-5.81059e-10
7.16963e-07
-4.44556e-10
7.17054e-07
-3.70158e-10
-1.88986e-10
-2.68233e-07
4.21583e-07
-8.62274e-08
-5.41292e-07
1.67685e-07
-7.14718e-07
3.41622e-07
-6.41699e-07
4.55818e-07
-4.95536e-07
5.24158e-07
-3.61221e-07
5.67382e-07
-2.63508e-07
5.97212e-07
-1.9549e-07
6.19342e-07
-1.47819e-07
6.3657e-07
-1.13752e-07
6.5036e-07
-8.88613e-08
6.61572e-07
-7.02997e-08
6.70771e-07
-5.6214e-08
6.78366e-07
-4.53649e-08
6.84665e-07
-3.68999e-08
6.89908e-07
-3.02186e-08
6.94286e-07
-2.48924e-08
6.97951e-07
-2.06095e-08
7.01028e-07
-1.71376e-08
7.03616e-07
-1.43033e-08
7.05797e-07
-1.19756e-08
7.07638e-07
-1.0054e-08
7.09195e-07
-8.45983e-09
7.10511e-07
-7.13157e-09
7.11627e-07
-6.02071e-09
7.12572e-07
-5.08854e-09
7.13373e-07
-4.30388e-09
7.14053e-07
-3.6415e-09
7.14629e-07
-3.08087e-09
7.15116e-07
-2.60505e-09
7.15529e-07
-2.19993e-09
7.15876e-07
-1.8537e-09
7.16169e-07
-1.55656e-09
7.16413e-07
-1.30031e-09
7.16616e-07
-1.07822e-09
7.16782e-07
-8.83257e-10
7.16917e-07
-7.15994e-10
7.17021e-07
-5.47945e-10
7.17107e-07
-4.56118e-10
-2.32891e-10
-6.79109e-09
4.28374e-07
1.27967e-07
-6.7605e-07
3.00658e-07
-8.87409e-07
4.39568e-07
-7.8061e-07
5.27268e-07
-5.83236e-07
5.75243e-07
-4.09196e-07
6.03241e-07
-2.91506e-07
6.22417e-07
-2.14666e-07
6.37322e-07
-1.62723e-07
6.49659e-07
-1.2609e-07
6.60083e-07
-9.92846e-08
6.68924e-07
-7.91408e-08
6.76418e-07
-6.37083e-08
6.82762e-07
-5.17087e-08
6.88127e-07
-4.22649e-08
6.92663e-07
-3.47546e-08
6.96498e-07
-2.87278e-08
6.99743e-07
-2.38537e-08
7.02489e-07
-1.98836e-08
7.04815e-07
-1.66292e-08
7.06786e-07
-1.39471e-08
7.08458e-07
-1.17261e-08
7.09877e-07
-9.87887e-09
7.11082e-07
-8.33643e-09
7.12105e-07
-7.04407e-09
7.12975e-07
-5.95791e-09
7.13713e-07
-5.04243e-09
7.14341e-07
-4.26874e-09
7.14873e-07
-3.61325e-09
7.15324e-07
-3.05641e-09
7.15706e-07
-2.58192e-09
7.16029e-07
-2.17616e-09
7.163e-07
-1.82778e-09
7.16527e-07
-1.52723e-09
7.16715e-07
-1.26665e-09
7.1687e-07
-1.03784e-09
7.16995e-07
-8.41451e-10
7.17091e-07
-6.44071e-10
7.17171e-07
-5.36018e-10
-2.73708e-10
5.8925e-07
-1.60876e-07
6.81083e-07
-7.67883e-07
6.96287e-07
-9.02613e-07
6.65853e-07
-7.50176e-07
6.47513e-07
-5.64896e-07
6.43591e-07
-4.05273e-07
6.45494e-07
-2.9341e-07
6.50302e-07
-2.19474e-07
6.56758e-07
-1.69179e-07
6.63771e-07
-1.33103e-07
6.70627e-07
-1.06141e-07
6.76969e-07
-8.54824e-08
6.82655e-07
-6.93941e-08
6.87659e-07
-5.67132e-08
6.92014e-07
-4.66199e-08
6.95777e-07
-3.85177e-08
6.99014e-07
-3.19647e-08
7.0179e-07
-2.66292e-08
7.04165e-07
-2.22587e-08
7.06195e-07
-1.86593e-08
7.07929e-07
-1.56807e-08
7.09408e-07
-1.32055e-08
7.1067e-07
-1.11408e-08
7.11746e-07
-9.41245e-09
7.12663e-07
-7.96131e-09
7.13445e-07
-6.7395e-09
7.1411e-07
-5.70812e-09
7.14677e-07
-4.83534e-09
7.15159e-07
-4.09502e-09
7.15568e-07
-3.46548e-09
7.15914e-07
-2.92856e-09
7.16207e-07
-2.4691e-09
7.16454e-07
-2.07439e-09
7.1666e-07
-1.73372e-09
7.16832e-07
-1.43825e-09
7.16973e-07
-1.17868e-09
7.17087e-07
-9.55807e-10
7.17175e-07
-7.31697e-10
7.17248e-07
-6.08849e-10
-3.10901e-10
1.68815e-06
-2.82217e-07
1.75597e-06
-8.35708e-07
1.51483e-06
-6.61473e-07
1.17924e-06
-4.14586e-07
9.27671e-07
-3.13322e-07
7.9368e-07
-2.71282e-07
7.36225e-07
-2.35955e-07
7.15946e-07
-1.99195e-07
7.11218e-07
-1.64451e-07
7.12456e-07
-1.3434e-07
7.15828e-07
-1.09514e-07
7.19837e-07
-8.94914e-08
7.2387e-07
-7.3427e-08
7.27667e-07
-6.05101e-08
7.31123e-07
-5.00759e-08
7.34208e-07
-4.16024e-08
7.36927e-07
-3.46838e-08
7.39303e-07
-2.90056e-08
7.41368e-07
-2.43234e-08
7.43154e-07
-2.04456e-08
7.44695e-07
-1.72214e-08
7.46021e-07
-1.45311e-08
7.47159e-07
-1.22791e-08
7.48135e-07
-1.03887e-08
7.48971e-07
-8.79742e-09
7.49687e-07
-7.45482e-09
7.50298e-07
-6.31938e-09
7.5082e-07
-5.35706e-09
7.51264e-07
-4.5397e-09
7.51643e-07
-3.8438e-09
7.51964e-07
-3.24969e-09
7.52235e-07
-2.74085e-09
7.52464e-07
-2.30344e-09
7.52656e-07
-1.92569e-09
7.52816e-07
-1.59791e-09
7.52947e-07
-1.30983e-09
7.53054e-07
-1.06233e-09
7.53135e-07
-8.13352e-10
7.53203e-07
-6.76755e-10
-3.45564e-10
1.20556e-06
-1.25368e-07
8.18644e-07
-4.48793e-07
6.62938e-07
-5.05767e-07
6.73857e-07
-4.25505e-07
7.0635e-07
-3.45816e-07
7.23984e-07
-2.88915e-07
7.28722e-07
-2.40693e-07
7.2787e-07
-1.98343e-07
7.2638e-07
-1.62961e-07
7.26107e-07
-1.34068e-07
7.27118e-07
-1.10525e-07
7.28964e-07
-9.13367e-08
7.31221e-07
-7.56845e-08
7.33605e-07
-6.28936e-08
7.35943e-07
-5.24137e-08
7.3814e-07
-4.38e-08
7.40152e-07
-3.66955e-08
7.41961e-07
-3.08146e-08
7.43568e-07
-2.59302e-08
7.44982e-07
-2.18602e-08
7.46219e-07
-1.84586e-08
7.47296e-07
-1.56077e-08
7.48229e-07
-1.32124e-08
7.49036e-07
-1.11951e-08
7.49731e-07
-9.49262e-09
7.50329e-07
-8.05274e-09
7.50842e-07
-6.83262e-09
7.51282e-07
-5.79676e-09
7.51658e-07
-4.91563e-09
7.51978e-07
-4.16448e-09
7.52251e-07
-3.52248e-09
7.52483e-07
-2.97213e-09
7.52678e-07
-2.49869e-09
7.52842e-07
-2.08958e-09
7.52978e-07
-1.73436e-09
7.5309e-07
-1.42201e-09
7.53181e-07
-1.1535e-09
7.53251e-07
-8.83269e-10
7.5331e-07
-7.34938e-10
-3.75289e-10
1.26747e-06
-6.70231e-08
1.09456e-06
-2.75887e-07
9.58134e-07
-3.69336e-07
8.81427e-07
-3.48798e-07
8.33036e-07
-2.97425e-07
7.94815e-07
-2.50695e-07
7.6804e-07
-2.13918e-07
7.52272e-07
-1.82574e-07
7.43858e-07
-1.54547e-07
7.39724e-07
-1.29935e-07
7.3807e-07
-1.08871e-07
7.37864e-07
-9.11308e-08
7.38487e-07
-7.63068e-08
7.39555e-07
-6.39618e-08
7.40832e-07
-5.36904e-08
7.42171e-07
-4.51397e-08
7.43487e-07
-3.80114e-08
7.4473e-07
-3.20574e-08
7.45874e-07
-2.70744e-08
7.46909e-07
-2.28953e-08
7.47834e-07
-1.93832e-08
7.48652e-07
-1.64259e-08
7.49371e-07
-1.39313e-08
7.49999e-07
-1.18233e-08
7.50546e-07
-1.0039e-08
7.51019e-07
-8.52622e-09
7.51428e-07
-7.24156e-09
7.5178e-07
-6.14892e-09
7.52082e-07
-5.21802e-09
7.52341e-07
-4.42334e-09
7.52562e-07
-3.74335e-09
7.5275e-07
-3.15989e-09
7.52909e-07
-2.65756e-09
7.53042e-07
-2.22317e-09
7.53154e-07
-1.84576e-09
7.53246e-07
-1.51369e-09
7.5332e-07
-1.22808e-09
7.53377e-07
-9.40502e-10
7.53425e-07
-7.82612e-10
-3.99681e-10
1.09506e-06
-8.63908e-08
1.04658e-06
-2.27405e-07
9.50426e-07
-2.73179e-07
8.71535e-07
-2.69908e-07
8.23093e-07
-2.48982e-07
7.961e-07
-2.23702e-07
7.78517e-07
-1.96335e-07
7.65876e-07
-1.69934e-07
7.57105e-07
-1.45776e-07
7.51433e-07
-1.24263e-07
7.48045e-07
-1.05484e-07
7.46236e-07
-8.93216e-08
7.45471e-07
-7.55414e-08
7.4537e-07
-6.38612e-08
7.45674e-07
-5.39946e-08
7.46209e-07
-4.56743e-08
7.46859e-07
-3.86616e-08
7.47552e-07
-3.27498e-08
7.4824e-07
-2.77628e-08
7.48897e-07
-2.35522e-08