/*--------------------------------*- C++ -*----------------------------------*\
| =========                 |                                                 |
| \\      /  F ield         | OpenFOAM: The Open Source CFD Toolbox           |
|  \\    /   O peration     | Version:  2112                                  |
|   \\  /    A nd           | Website:  www.openfoam.com                      |
|    \\/     M anipulation  |                                                 |
\*---------------------------------------------------------------------------*/
FoamFile
{
    version     2.0;
    format      ascii;
    arch        "LSB;label=32;scalar=64";
    class       volScalarField;
    location    "0.12";
    object      nut;
}
// * * * * * * * * * * * * * * * * * * * * * * * * * * * * * * * * * * * * * //

dimensions      [0 2 -1 0 0 0 0];

internalField   nonuniform List<scalar> 
1880
(
3.45583e-11
4.73683e-12
1.39137e-13
6.29774e-16
2.92026e-13
3.31157e-13
8.99672e-14
5.1752e-14
6.58633e-14
6.30432e-13
8.77213e-13
5.11861e-13
1.77341e-13
4.74251e-14
7.17279e-15
9.45061e-16
2.57683e-15
3.64706e-14
6.7241e-14
3.67486e-13
7.23084e-13
1.99666e-12
2.87154e-12
5.99648e-12
6.02416e-12
1.54388e-11
6.31633e-11
4.17641e-11
4.75877e-09
5.23917e-10
4.91439e-09
5.79678e-09
8.25515e-10
1.23856e-09
1.62515e-11
1.36339e-10
5.47247e-11
9.55718e-11
1.71065e-13
6.71392e-11
1.83763e-10
1.47116e-10
5.884e-11
1.21984e-11
2.64826e-12
1.5321e-13
7.10233e-13
2.41369e-11
7.88814e-12
1.50781e-10
6.02556e-11
4.02519e-10
3.9895e-10
7.87538e-10
1.73581e-09
3.45517e-09
5.72719e-09
2.1895e-08
2.41685e-08
7.57165e-08
6.24368e-10
4.49619e-09
9.32792e-10
6.97696e-09
1.91726e-09
6.75407e-09
1.9881e-09
5.45699e-09
4.27062e-09
4.84243e-09
1.94554e-08
9.04257e-09
5.53363e-11
2.82785e-10
3.65436e-10
1.20263e-09
1.16164e-09
3.36654e-09
1.94677e-09
6.56415e-09
3.02349e-09
9.82951e-09
7.43282e-09
1.20869e-08
1.88628e-08
1.64073e-08
3.26293e-08
3.02021e-08
4.03004e-08
5.88254e-08
2.13629e-10
8.952e-10
5.33984e-10
9.87242e-09
1.17835e-10
6.54611e-09
1.33246e-09
5.51266e-09
1.11279e-10
1.26271e-09
7.11625e-10
3.10889e-09
2.04074e-09
2.26166e-09
2.32387e-09
2.84296e-09
3.14805e-09
4.48532e-09
4.22423e-09
6.52682e-09
5.44313e-09
8.844e-09
7.6346e-09
1.26265e-08
1.30005e-08
1.98022e-08
2.13102e-08
3.09944e-08
3.33846e-08
4.07922e-08
1.22058e-10
3.82143e-09
1.5829e-09
7.13786e-09
5.21239e-10
3.40743e-09
8.03233e-10
4.07657e-09
1.08594e-09
4.99926e-09
1.80725e-11
6.3294e-10
1.27374e-10
2.11782e-09
1.51662e-09
2.41034e-09
2.55992e-09
3.97246e-09
3.73338e-09
5.63925e-09
5.43053e-09
8.2613e-09
1.05409e-08
1.45238e-08
1.96548e-08
2.18086e-08
2.70431e-08
2.64781e-08
2.91378e-08
3.39722e-08
4.94547e-10
2.18484e-09
4.12596e-10
9.63789e-09
1.6167e-11
2.02762e-10
2.21919e-09
6.91525e-09
4.19612e-10
5.47003e-09
2.26064e-10
2.5949e-09
2.63484e-09
1.12192e-09
1.13786e-09
1.98174e-09
2.55637e-09
3.62681e-09
3.78426e-09
5.23094e-09
5.2965e-09
7.59591e-09
8.6767e-09
1.16447e-08
1.32247e-08
1.52507e-08
1.72793e-08
2.05206e-08
2.31762e-08
2.75358e-08
5.76823e-10
3.1422e-09
1.56452e-09
8.40136e-09
6.1118e-10
9.1568e-10
1.7919e-09
5.81986e-09
1.15197e-09
4.1986e-09
1.82609e-10
1.60616e-09
2.31775e-10
1.57691e-09
1.0995e-09
1.87826e-09
2.51694e-09
3.3503e-09
3.78546e-09
4.72742e-09
5.52389e-09
7.24463e-09
9.91637e-09
1.22486e-08
1.5476e-08
1.54053e-08
1.80753e-08
1.86062e-08
1.9687e-08
2.73278e-08
8.71637e-10
3.01989e-09
1.45064e-09
9.32894e-09
5.11864e-10
1.11868e-09
2.71163e-09
7.12246e-09
9.06694e-10
4.12346e-09
6.75029e-10
2.43986e-09
1.01716e-09
1.4133e-09
1.37774e-09
1.86631e-09
2.68239e-09
3.17888e-09
3.88374e-09
4.45006e-09
5.41758e-09
6.62295e-09
8.53667e-09
1.0087e-08
1.16695e-08
1.24559e-08
1.42225e-08
1.66875e-08
1.87359e-08
2.1086e-08
1.18219e-09
2.8215e-09
1.88816e-09
9.3387e-09
8.96509e-10
1.88606e-09
2.73814e-09
6.99048e-09
1.61505e-09
4.85367e-09
1.2101e-09
2.60248e-09
1.49266e-09
1.72726e-09
1.7205e-09
2.02493e-09
2.8374e-09
3.10293e-09
3.9657e-09
4.21943e-09
5.43645e-09
6.23933e-09
8.35349e-09
9.55892e-09
1.11772e-08
1.17066e-08
1.30161e-08
1.56886e-08
1.61219e-08
2.13109e-08
1.54716e-09
2.18851e-09
2.25378e-09
9.50405e-09
1.13389e-09
2.60281e-09
2.96781e-09
7.22168e-09
1.96177e-09
5.05996e-09
1.67074e-09
2.93064e-09
1.91331e-09
1.9938e-09
2.05076e-09
2.23309e-09
3.00388e-09
3.11629e-09
4.02991e-09
4.13478e-09
5.33981e-09
5.89063e-09
7.57553e-09
8.62247e-09
9.68415e-09
1.08976e-08
1.20411e-08
1.4062e-08
1.58291e-08
1.70606e-08
1.9012e-09
1.15546e-09
2.52496e-09
9.68712e-09
1.27231e-09
3.17885e-09
3.16656e-09
7.4764e-09
2.14441e-09
5.02834e-09
2.06522e-09
3.2757e-09
2.27852e-09
2.25178e-09
2.34658e-09
2.45852e-09
3.1498e-09
3.17121e-09
4.06304e-09
4.09709e-09
5.25592e-09
5.66408e-09
7.11519e-09
8.07696e-09
8.8874e-09
1.03175e-08
1.11905e-08
1.3448e-08
1.4181e-08
1.67942e-08
2.06532e-09
5.16651e-10
2.74651e-09
9.56828e-09
1.51054e-09
4.30597e-09
2.9749e-09
7.09343e-09
2.60468e-09
5.56219e-09
2.39489e-09
3.40186e-09
2.55526e-09
2.54903e-09
2.58852e-09
2.67035e-09
3.24605e-09
3.24994e-09
4.05427e-09
4.10154e-09
5.13833e-09
5.50413e-09
6.66309e-09
7.6244e-09
8.24657e-09
9.76991e-09
1.06054e-08
1.21283e-08
1.35714e-08
1.4666e-08
1.89149e-09
1.35161e-09
2.36128e-09
9.85199e-09
1.42303e-09
4.89077e-09
3.12833e-09
7.43515e-09
2.41843e-09
5.04125e-09
2.69699e-09
3.90878e-09
2.88244e-09
2.68056e-09
2.78612e-09
2.8377e-09
3.33005e-09
3.30782e-09
4.01917e-09
4.10434e-09
5.0101e-09
5.3879e-09
6.31767e-09
7.27791e-09
7.77565e-09
9.31283e-09
1.00427e-08
1.15045e-08
1.25294e-08
1.40201e-08
1.28329e-09
2.75673e-09
2.56382e-09
8.963e-09
1.71253e-09
6.86917e-09
2.63852e-09
6.50786e-09
2.79933e-09
5.50905e-09
2.96869e-09
3.79717e-09
3.00486e-09
2.98267e-09
2.90083e-09
2.93451e-09
3.29472e-09
3.3329e-09
3.92373e-09
4.08402e-09
4.86128e-09
5.28333e-09
6.04297e-09
6.99693e-09
7.44379e-09
8.86294e-09
9.59316e-09
1.07214e-08
1.18646e-08
1.29632e-08
9.1915e-10
2.67299e-09
8.032e-10
1.02702e-08
1.14286e-09
6.62538e-09
2.9725e-09
7.42577e-09
2.0503e-09
4.33223e-09
3.09516e-09
4.19965e-09
3.25786e-09
2.96514e-09
2.99007e-09
3.00297e-09
3.302e-09
3.30359e-09
3.82495e-09
4.03497e-09
4.71078e-09
5.18015e-09
5.82291e-09
6.75693e-09
7.18662e-09
8.48467e-09
9.1851e-09
1.02119e-08
1.11936e-08
1.23103e-08
2.58338e-10
4.24785e-09
2.22948e-09
7.92704e-09
1.74545e-09
9.10966e-09
2.09971e-09
5.3321e-09
2.75631e-09
5.57142e-09
3.31199e-09
4.07165e-09
3.26289e-09
3.1148e-09
2.88932e-09
2.84654e-09
3.04651e-09
3.18267e-09
3.62342e-09
3.93835e-09
4.53543e-09
5.0643e-09
5.6378e-09
6.5444e-09
6.98853e-09
8.14544e-09
8.8476e-09
9.75468e-09
1.06819e-08
1.16862e-08
2.77865e-10
7.66746e-10
1.14101e-12
1.04725e-08
4.61906e-10
5.94928e-09
2.14179e-09
6.35724e-09
1.41856e-09
3.15915e-09
3.50723e-09
4.66734e-09
3.32076e-09
2.89415e-09
2.72139e-09
2.70906e-09
2.89305e-09
2.98906e-09
3.4302e-09
3.79997e-09
4.35032e-09
4.94005e-09
5.4607e-09
6.35243e-09
6.81976e-09
7.86147e-09
8.5517e-09
9.41986e-09
1.0245e-08
1.12214e-08
7.85389e-10
4.81977e-09
1.64082e-09
7.63665e-09
2.76314e-09
1.1017e-08
3.1204e-09
6.12031e-09
4.35547e-09
5.06764e-09
1.24971e-11
3.33676e-09
2.18838e-08
2.29869e-08
1.13784e-08
1.45633e-09
3.54418e-11
1.39458e-11
2.02369e-10
7.43875e-10
1.25603e-09
2.44793e-09
2.72075e-09
4.45575e-09
4.67641e-09
6.32497e-09
6.83896e-09
8.33416e-09
8.75621e-09
1.03179e-08
4.98698e-09
5.61808e-09
6.96668e-10
1.20308e-09
4.69949e-12
1.1464e-10
3.78539e-11
8.01327e-11
5.63646e-12
1.73261e-10
3.79996e-10
3.21339e-10
1.56696e-10
6.53679e-11
2.38224e-11
8.3028e-12
3.51993e-12
1.87495e-12
1.43374e-12
1.16912e-12
1.38721e-12
8.77408e-13
1.62322e-12
7.08576e-13
8.23058e-13
5.71175e-13
1.49571e-13
7.14669e-15
2.59304e-14
7.04562e-13
3.3891e-11
4.59065e-12
1.2998e-13
1.05802e-15
2.6596e-13
2.96103e-13
6.45999e-14
4.36926e-14
9.00239e-14
7.95229e-13
1.10268e-12
6.86995e-13
2.71136e-13
1.07791e-13
3.56665e-14
9.4973e-15
2.87056e-15
1.26476e-15
8.38942e-16
7.7754e-16
7.91904e-16
9.77449e-16
1.19539e-15
1.46905e-15
1.22869e-15
1.81913e-15
5.01297e-16
9.43248e-16
1.51831e-16
6.24055e-17
4.40896e-08
1.55977e-09
1.37812e-08
4.45132e-09
3.11653e-09
9.15054e-09
8.70042e-10
3.56992e-09
2.51141e-08
1.52049e-08
4.79652e-08
8.52013e-08
1.64993e-08
2.57316e-08
7.07439e-09
1.44283e-06
1.06701e-07
1.25937e-07
1.79795e-06
1.3436e-07
7.79623e-08
5.9605e-08
2.89007e-08
6.28957e-08
9.20263e-08
6.1339e-07
4.73241e-08
2.37321e-08
1.66626e-08
5.54541e-07
5.38025e-08
4.56331e-08
6.08706e-08
3.57101e-08
6.32718e-08
6.60378e-08
6.29498e-09
9.66028e-08
1.36994e-07
2.4346e-08
4.84298e-08
4.06239e-08
3.37982e-08
3.79574e-08
4.95064e-08
4.74906e-08
3.03864e-08
7.79437e-08
9.13054e-08
2.99855e-08
3.84835e-08
3.1685e-08
3.57143e-08
3.28355e-08
4.02491e-08
4.91275e-08
2.00511e-08
5.25058e-08
7.26345e-08
3.0189e-08
3.2259e-08
3.06351e-08
3.1906e-08
2.73665e-08
3.50589e-08
4.08212e-08
3.31436e-08
3.91999e-08
4.97048e-08
3.70595e-08
3.22134e-08
2.5972e-08
2.80158e-08
3.0927e-08
3.09224e-08
3.37579e-08
3.22325e-08
3.59302e-08
3.91054e-08
2.94241e-08
2.42018e-08
2.36215e-08
2.6581e-08
2.48107e-08
2.74642e-08
3.12786e-08
2.81968e-08
2.77706e-08
3.3145e-08
2.73445e-08
2.51347e-08
2.1233e-08
2.27702e-08
2.50108e-08
2.51704e-08
2.59568e-08
2.61171e-08
2.60293e-08
2.56482e-08
2.30397e-08
1.93818e-08
1.9095e-08
2.14527e-08
2.19229e-08
2.26791e-08
2.36755e-08
2.25525e-08
2.17708e-08
2.28707e-08
2.01779e-08
1.86689e-08
1.75496e-08
1.90635e-08
2.04874e-08
2.123e-08
2.07267e-08
2.02022e-08
1.96253e-08
1.88793e-08
1.71564e-08
1.57977e-08
1.6064e-08
1.766e-08
1.85771e-08
1.92e-08
1.88169e-08
1.78947e-08
1.71022e-08
1.67766e-08
1.50375e-08
1.45909e-08
1.49346e-08
1.61223e-08
1.70938e-08
1.76486e-08
1.6964e-08
1.61029e-08
1.52564e-08
1.44909e-08
1.29843e-08
1.32575e-08
1.3923e-08
1.49376e-08
1.56865e-08
1.60987e-08
1.54876e-08
1.45662e-08
1.36526e-08
1.28905e-08
1.14386e-08
1.2437e-08
1.31276e-08
1.39124e-08
1.45062e-08
1.47632e-08
1.42306e-08
1.33476e-08
1.23818e-08
1.14614e-08
1.01133e-08
1.18106e-08
1.24678e-08
1.30828e-08
1.35206e-08
1.36667e-08
1.32709e-08
1.24139e-08
1.14693e-08
1.05024e-08
9.22035e-09
1.06852e-08
1.07728e-08
1.12795e-08
1.0878e-08
1.11463e-08
9.90772e-09
9.28005e-09
6.94766e-09
6.04151e-09
3.86769e-09
1.39837e-12
5.70841e-12
1.21206e-11
2.73587e-11
4.03788e-11
6.06686e-11
6.03791e-11
5.83469e-11
4.73698e-11
4.35084e-11
5.43098e-16
2.83949e-15
7.07059e-15
1.36644e-14
1.82592e-14
3.26751e-14
4.59833e-14
4.91239e-14
4.98977e-14
3.78012e-14
6.98136e-08
6.77382e-09
1.2289e-08
3.98661e-09
2.06491e-09
1.81943e-09
5.122e-09
1.88899e-08
8.27253e-08
1.04725e-07
1.8387e-08
2.06878e-09
2.84191e-10
4.61368e-11
7.95364e-12
1.32361e-12
1.9842e-13
2.49629e-14
2.30041e-15
1.10963e-16
1.15869e-18
3.59423e-18
8.97238e-18
9.79241e-18
7.84347e-18
5.37849e-18
3.46766e-18
2.04981e-18
1.33256e-18
7.43063e-19
5.54422e-19
3.04009e-19
2.38322e-19
1.51723e-19
1.07922e-19
1.04462e-19
9.3971e-20
9.74872e-20
1.25169e-19
1.28126e-19
3.38094e-08
1.39488e-07
1.88631e-07
9.43525e-08
3.83265e-08
1.2311e-07
1.64755e-07
1.63504e-07
1.55893e-07
1.32985e-07
1.10243e-07
8.66681e-08
6.35513e-08
4.10227e-08
2.16188e-08
8.84754e-09
2.87228e-09
7.98571e-10
2.062e-10
5.26009e-11
1.38345e-11
3.86275e-12
1.16713e-12
3.84934e-13
1.3879e-13
5.40564e-14
2.29319e-14
9.98069e-15
4.89023e-15
2.158e-15
1.20892e-15
5.22445e-16
2.81644e-16
1.4227e-16
5.55441e-17
3.08821e-17
9.81521e-18
4.25425e-18
2.48996e-19
2.23904e-19
1.9516e-07
1.4101e-07
9.35398e-08
1.94634e-07
1.66718e-06
4.22327e-09
1.63214e-07
1.81837e-07
1.7144e-07
1.44704e-07
1.17197e-07
9.26964e-08
7.34894e-08
5.83976e-08
4.61176e-08
3.60963e-08
2.80613e-08
2.16102e-08
1.6261e-08
1.16628e-08
7.7386e-09
4.63566e-09
2.48837e-09
1.21343e-09
5.54049e-10
2.43779e-10
1.07263e-10
4.67428e-11
2.16681e-11
9.47757e-12
4.8171e-12
2.12642e-12
1.1038e-12
5.35985e-13
2.56003e-13
1.23842e-13
6.00012e-14
2.51121e-14
7.95119e-15
3.15822e-15
1.22195e-07
9.13765e-08
5.24793e-08
2.55559e-06
3.53443e-06
2.63415e-06
5.77472e-10
1.02802e-07
1.5932e-07
1.5841e-07
1.29381e-07
9.93644e-08
7.5191e-08
5.71483e-08
4.42114e-08
3.45321e-08
2.68882e-08
2.08406e-08
1.61704e-08
1.26322e-08
9.96673e-09
7.94747e-09
6.39867e-09
5.19107e-09
4.23422e-09
3.45995e-09
2.82904e-09
2.2935e-09
1.85874e-09
1.45888e-09
1.15872e-09
8.55526e-10
6.49797e-10
4.47139e-10
3.16777e-10
1.94333e-10
1.35601e-10
7.0722e-11
4.61448e-11
2.10004e-11
2.21918e-09
1.80481e-07
9.516e-08
3.22447e-06
4.19089e-06
3.41003e-06
5.47783e-07
2.90982e-10
3.38088e-08
9.77559e-08
1.27876e-07
1.07302e-07
7.69093e-08
5.60793e-08
4.23829e-08
3.24158e-08
2.50048e-08
1.94296e-08
1.51866e-08
1.19526e-08
9.48864e-09
7.60223e-09
6.14436e-09
5.00415e-09
4.1032e-09
3.38152e-09
2.80292e-09
2.32645e-09
1.94801e-09
1.61926e-09
1.37337e-09
1.13772e-09
9.78484e-10
8.09285e-10
7.05933e-10
5.79912e-10
5.21592e-10
4.22016e-10
3.92186e-10
3.17345e-10
3.88771e-06
1.17142e-07
5.00108e-08
2.37817e-06
3.90563e-06
3.1192e-06
5.90636e-07
9.78955e-10
8.03632e-09
3.16063e-08
5.83989e-08
8.0039e-08
8.20512e-08
6.25092e-08
4.28651e-08
3.11097e-08
2.37046e-08
1.83436e-08
1.43394e-08
1.13397e-08
9.06808e-09
7.32165e-09
5.95885e-09
4.88087e-09
4.02008e-09
3.32389e-09
2.7616e-09
2.29495e-09
1.92287e-09
1.59794e-09
1.35383e-09
1.12041e-09
9.609e-10
7.92696e-10
6.89667e-10
5.63427e-10
5.06026e-10
4.05403e-10
3.79471e-10
3.00777e-10
2.51563e-07
1.90716e-07
1.21006e-07
8.03729e-09
2.38983e-06
3.20357e-06
1.82677e-06
1.09075e-08
5.90829e-09
5.30661e-08
8.82467e-08
6.5398e-08
4.82633e-08
4.78652e-08
4.69066e-08
3.6071e-08
2.5311e-08
1.84201e-08
1.40407e-08
1.0993e-08
8.76288e-09
7.08434e-09
5.78776e-09
4.7622e-09
3.93871e-09
3.26761e-09
2.72251e-09
2.26665e-09
1.90246e-09
1.58179e-09
1.34076e-09
1.10958e-09
9.49551e-10
7.83229e-10
6.78214e-10
5.52268e-10
4.92931e-10
3.91883e-10
3.63267e-10
2.83579e-10
1.71487e-08
2.06794e-06
2.87504e-07
3.19671e-08
1.25428e-06
2.38566e-06
1.12558e-06
1.86612e-08
1.83608e-08
5.03113e-08
3.10718e-08
7.29319e-09
7.10901e-08
4.84596e-08
3.40007e-08
3.21076e-08
2.75972e-08
2.05697e-08
1.48801e-08
1.11157e-08
8.66404e-09
6.98838e-09
5.7577e-09
4.79147e-09
4.00348e-09
3.34725e-09
2.8049e-09
2.34378e-09
1.97285e-09
1.64214e-09
1.39317e-09
1.15322e-09
9.84737e-10
8.12402e-10
6.99789e-10
5.68016e-10
5.03368e-10
3.96862e-10
3.63214e-10
2.78524e-10
1.11932e-07
2.11639e-06
2.33071e-06
9.01029e-08
6.75469e-08
1.01091e-06
3.52689e-08
5.01917e-08
1.7112e-07
1.17425e-07
5.63396e-08
1.00248e-06
9.68606e-07
6.00144e-07
5.33596e-08
2.31594e-08
2.22675e-08
1.86892e-08
1.53012e-08
1.21115e-08
9.44888e-09
7.42055e-09
5.93173e-09
4.82897e-09
3.98574e-09
3.31382e-09
2.77197e-09
2.31535e-09
1.9505e-09
1.62367e-09
1.37812e-09
1.14078e-09
9.71882e-10
8.0197e-10
6.87027e-10
5.55782e-10
4.88741e-10
3.81779e-10
3.44174e-10
2.58083e-10
1.49743e-07
3.82136e-08
1.18477e-08
2.22367e-08
9.68924e-08
6.90357e-08
1.17888e-07
8.40725e-08
6.54237e-09
1.06488e-08
1.2714e-07
7.73801e-08
1.28421e-07
4.37361e-08
3.77775e-08
9.88719e-08
1.76328e-07
8.89478e-08
1.42272e-09
5.86644e-09
6.26311e-09
5.71844e-09
5.0402e-09
4.3728e-09
3.75165e-09
3.18911e-09
2.70143e-09
2.27187e-09
1.92222e-09
1.60303e-09
1.36238e-09
1.12827e-09
9.59387e-10
7.91936e-10
6.74914e-10
5.44233e-10
4.74944e-10
3.67497e-10
3.25893e-10
2.37828e-10
1.95432e-08
1.23546e-07
5.23755e-08
7.23513e-09
4.91451e-08
4.03742e-08
8.73096e-08
1.02613e-07
1.26704e-07
2.33267e-08
4.35256e-09
7.81373e-09
3.20905e-09
6.29292e-09
2.6783e-08
4.2188e-08
3.56612e-08
2.45531e-08
1.69194e-08
1.21869e-08
9.0646e-09
6.9541e-09
5.52809e-09
4.52751e-09
3.77589e-09
3.1706e-09
2.67414e-09
2.24603e-09
1.90115e-09
1.58564e-09
1.34836e-09
1.11688e-09
9.48094e-10
7.82879e-10
6.64175e-10
5.34086e-10
4.62853e-10
3.54966e-10
3.09616e-10
2.18912e-10
1.15004e-07
8.94727e-08
7.54205e-08
3.79299e-08
7.35098e-08
3.32746e-08
1.36466e-08
8.12753e-08
4.99468e-08
1.55021e-08
6.05528e-08
2.82098e-08
4.76987e-07
2.11288e-08
5.99247e-08
5.22563e-08
3.62924e-08
2.44783e-08
1.70893e-08
1.22316e-08
8.90551e-09
6.71193e-09
5.31139e-09
4.37284e-09
3.67431e-09
3.10398e-09
2.62915e-09
2.21422e-09
1.8784e-09
1.56835e-09
1.33503e-09
1.10639e-09
9.3819e-10
7.75052e-10
6.55289e-10
5.25846e-10
4.53162e-10
3.44978e-10
2.96547e-10
2.02656e-10
5.14062e-08
8.41075e-08
7.00266e-08
3.79444e-08
3.29605e-08
3.69342e-08
4.14301e-08
5.05099e-08
3.59164e-08
3.98478e-08
1.01542e-07
5.20924e-08
6.44301e-07
6.8908e-07
1.95905e-07
1.45316e-08
1.58944e-08
2.10745e-08
1.74235e-08
1.17941e-08
8.18437e-09
6.15989e-09
4.97544e-09
4.18319e-09
3.56589e-09
3.03786e-09
2.58609e-09
2.18449e-09
1.85732e-09
1.55268e-09
1.32318e-09
1.09728e-09
9.30144e-10
7.68827e-10
6.48728e-10
5.1999e-10
4.46495e-10
3.38267e-10
2.87825e-10
1.9101e-10
6.55609e-08
4.75284e-08
5.38012e-08
4.70049e-08
3.51765e-08
2.83144e-08
3.24056e-08
1.19649e-08
2.80978e-08
4.64984e-07
3.82468e-08
1.11667e-08
7.15944e-09
8.68109e-09
3.38092e-08
4.2111e-08
3.49378e-08
2.58597e-08
1.86766e-08
1.33542e-08
9.52707e-09
6.96291e-09
5.3533e-09
4.32508e-09
3.60052e-09
3.03165e-09
2.5681e-09
2.16572e-09
1.84139e-09
1.54e-09
1.31345e-09
1.0899e-09
9.24244e-10
7.6442e-10
6.44768e-10
5.16797e-10
4.43244e-10
3.35305e-10
2.84254e-10
1.8628e-10
3.35125e-08
4.12061e-08
4.15617e-08
3.08908e-08
4.4361e-08
4.28023e-08
1.22759e-08
4.31082e-08
4.72963e-08
3.51113e-08
1.93478e-08
3.12112e-07
2.29657e-08
1.67641e-08
3.18389e-08
3.29215e-08
2.82883e-08
2.20504e-08
1.55903e-08
1.04609e-08
7.31915e-09
5.63471e-09
4.68268e-09
4.01345e-09
3.45389e-09
2.95675e-09
2.52541e-09
2.13912e-09
1.8236e-09
1.52787e-09
1.30501e-09
1.08403e-09
9.20478e-10
7.61876e-10
6.43496e-10
5.16363e-10
4.43549e-10
3.36251e-10
2.8612e-10
1.89666e-10
3.74641e-08
3.08227e-08
3.20978e-08
3.2609e-08
2.52608e-08
2.84387e-08
3.66717e-08
2.53843e-08
1.57998e-08
4.1017e-08
4.50798e-08
3.24769e-08
2.49011e-08
3.17973e-08
3.20801e-08
2.8674e-08
2.42399e-08
1.93188e-08
1.46958e-08
1.0868e-08
8.04891e-09
6.17722e-09
4.96811e-09
4.1274e-09
3.48312e-09
2.95264e-09
2.51146e-09
2.12481e-09
1.81153e-09
1.51903e-09
1.29888e-09
1.08004e-09
9.18939e-10
7.61211e-10
6.4485e-10
5.186e-10
4.47274e-10
3.40922e-10
2.93102e-10
2.00055e-10
2.26791e-08
2.40333e-08
2.55454e-08
2.30168e-08
2.70864e-08
2.71912e-08
2.16916e-08
2.72328e-08
3.34931e-08
3.2024e-08
2.33771e-08
1.50329e-08
2.72932e-08
3.17817e-08
2.93918e-08
2.47306e-08
1.96427e-08
1.49793e-08
1.10872e-08
8.24365e-09
6.46222e-09
5.37329e-09
4.59917e-09
3.95776e-09
3.39878e-09
2.906e-09
2.48279e-09
2.10643e-09
1.79906e-09
1.51124e-09
1.29418e-09
1.07756e-09
9.19376e-10
7.62259e-10
6.48579e-10
5.23234e-10
4.5403e-10
3.4883e-10
3.04372e-10
2.15072e-10
2.35368e-08
2.14365e-08
2.09078e-08
2.06764e-08
1.87956e-08
2.01299e-08
2.22678e-08
2.12843e-08
1.63003e-08
2.36586e-08
2.78627e-08
2.38887e-08
1.96217e-08
1.89823e-08
1.82942e-08
1.69511e-08
1.49601e-08
1.24652e-08
1.00107e-08
8.01112e-09
6.54608e-09
5.47605e-09
4.64537e-09
3.96233e-09
3.38544e-09
2.88864e-09
2.46683e-09
2.0942e-09
1.78994e-09
1.50577e-09
1.29131e-09
1.07662e-09
9.216e-10
7.64816e-10
6.54316e-10
5.29855e-10
4.63239e-10
3.59274e-10
3.18812e-10
2.32671e-10
1.65715e-08
1.627e-08
1.63832e-08
1.62427e-08
1.71639e-08
1.79792e-08
1.75886e-08
1.88579e-08
1.9765e-08
1.93174e-08
1.81038e-08
1.64197e-08
1.64133e-08
1.79257e-08
1.76317e-08
1.56902e-08
1.3151e-08
1.06965e-08
8.70108e-09
7.23347e-09
6.14672e-09
5.27752e-09
4.54055e-09
3.9016e-09
3.34707e-09
2.86315e-09
2.44917e-09
2.0826e-09
1.78206e-09
1.50171e-09
1.28979e-09
1.07692e-09
9.25247e-10
7.68581e-10
6.61582e-10
5.37948e-10
4.74203e-10
3.71442e-10
3.35226e-10
2.51463e-10
1.56886e-08
1.4725e-08
1.37488e-08
1.36724e-08
1.32285e-08
1.3838e-08
1.46109e-08
1.5792e-08
1.55868e-08
1.53592e-08
1.70006e-08
1.7134e-08
1.57454e-08
1.41455e-08
1.2866e-08
1.16612e-08
1.04281e-08
9.18237e-09
8.01168e-09
6.96356e-09
6.03604e-09
5.21771e-09
4.49901e-09
3.86996e-09
3.32271e-09
2.84501e-09
2.43579e-09
2.0738e-09
1.77615e-09
1.49919e-09
1.28953e-09
1.07827e-09
9.29942e-10
7.73217e-10
6.69845e-10
5.46949e-10
4.86178e-10
3.84508e-10
3.52481e-10
2.70427e-10
1.22582e-08
1.14677e-08
1.0737e-08
1.08283e-08
1.12821e-08
1.21096e-08
1.26721e-08
1.34214e-08
1.43069e-08
1.44349e-08
1.41476e-08
1.39931e-08
1.37435e-08
1.31988e-08
1.24301e-08
1.14091e-08
1.02085e-08
8.99386e-09
7.86558e-09
6.85302e-09
5.95368e-09
5.15764e-09
4.45569e-09
3.83884e-09
3.3003e-09
2.82921e-09
2.4246e-09
2.06685e-09
1.77172e-09
1.49783e-09
1.2902e-09
1.08034e-09
9.35225e-10
7.78324e-10
6.78512e-10
5.56246e-10
4.98409e-10
3.97664e-10
3.69561e-10
2.88704e-10
1.07829e-08
9.86112e-09
8.88882e-09
8.76703e-09
8.81264e-09
9.41206e-09
1.02767e-08
1.12847e-08
1.228e-08
1.2639e-08
1.29314e-08
1.31871e-08
1.30887e-08
1.25467e-08
1.16883e-08
1.06948e-08
9.66642e-09
8.64129e-09
7.65083e-09
6.72225e-09
5.87105e-09
5.1029e-09
4.41787e-09
3.81199e-09
3.28088e-09
2.81539e-09
2.41466e-09
2.0606e-09
1.7676e-09
1.49648e-09
1.29063e-09
1.08203e-09
9.39924e-10
7.82793e-10
6.86406e-10
5.64655e-10
5.09682e-10
4.09617e-10
3.8529e-10
3.05077e-10
8.93408e-09
7.97586e-09
7.01287e-09
6.83564e-09
7.1323e-09
7.97831e-09
8.93323e-09
9.95478e-09
1.10258e-08
1.1734e-08
1.21664e-08
1.2362e-08
1.2273e-08
1.18528e-08
1.11666e-08
1.03242e-08
9.3988e-09
8.44218e-09
7.49999e-09
6.60639e-09
5.78074e-09
5.03136e-09
4.36012e-09
3.76458e-09
3.24116e-09
2.78195e-09
2.38555e-09
2.03612e-09
1.7453e-09
1.4781e-09
1.27374e-09
1.06715e-09
9.28512e-10
7.70409e-10
6.79022e-10
5.56557e-10
5.06284e-10
4.04276e-10
3.88626e-10
3.0352e-10
7.91612e-09
6.75408e-09
5.85824e-09
5.59664e-09
5.80606e-09
6.56088e-09
7.59399e-09
8.65271e-09
9.71607e-09
1.04795e-08
1.0966e-08
1.12018e-08
1.11355e-08
1.07463e-08
1.01034e-08
9.30913e-09
8.43798e-09
7.54013e-09
6.65508e-09
5.81188e-09
5.02767e-09
4.31048e-09
3.66236e-09
3.08191e-09
2.5652e-09
2.10768e-09
1.704e-09
1.3495e-09
1.04213e-09
7.72781e-10
5.58497e-10
3.6123e-10
2.4529e-10
1.2187e-10
8.05208e-11
2.92645e-11
2.19018e-11
5.49454e-12
8.81031e-12
2.12076e-12
2.7923e-09
1.89295e-09
1.4284e-09
1.25844e-09
1.16076e-09
1.13679e-09
1.13857e-09
1.07533e-09
1.0061e-09
9.53303e-10
9.22849e-10
8.74368e-10
7.61707e-10
5.96228e-10
4.2315e-10
2.75367e-10
1.63662e-10
8.76065e-11
4.14255e-11
1.67594e-11
5.45468e-12
1.25326e-12
1.41456e-13
2.18905e-15
2.34943e-14
1.26948e-13
2.76805e-13
3.64642e-13
4.37679e-13
3.7067e-13
3.53465e-13
2.52668e-13
1.80036e-13
1.36998e-13
7.10447e-14
4.76826e-14
2.27947e-14
1.2037e-14
2.47919e-15
1.29472e-15
2.91771e-11
1.64132e-11
1.14157e-11
9.63331e-12
7.63801e-12
5.67056e-12
3.58499e-12
1.14286e-12
8.60117e-14
9.05314e-16
4.69116e-14
1.45248e-13
2.6234e-13
3.66745e-13
4.08931e-13
3.85756e-13
3.26481e-13
2.55309e-13
1.87177e-13
1.3064e-13
8.81945e-14
5.82716e-14
3.79788e-14
2.44837e-14
1.56992e-14
9.90508e-15
6.32514e-15
3.80982e-15
2.50447e-15
1.36145e-15
9.43889e-16
4.74007e-16
2.877e-16
1.71352e-16
6.94698e-17
4.3411e-17
1.49193e-17
6.8773e-18
4.76209e-19
3.5835e-19
2.1331e-14
6.67989e-15
3.51258e-15
2.35596e-15
1.64226e-15
3.33817e-16
1.22033e-16
5.36854e-16
5.50769e-15
1.24157e-14
1.40847e-14
1.19177e-14
8.80881e-15
5.79324e-15
3.31081e-15
1.6689e-15
7.638e-16
3.2069e-16
1.23329e-16
4.34898e-17
1.41561e-17
4.29942e-18
1.26953e-18
3.96224e-19
1.70108e-19
9.68162e-20
9.96284e-20
6.9435e-20
1.03194e-19
5.68958e-20
9.36326e-20
5.22695e-20
5.90793e-20
4.73891e-20
4.26991e-20
5.52017e-20
5.33505e-20
7.96853e-20
1.02119e-19
1.20001e-19
)
;

boundaryField
{
    inlet
    {
        type            calculated;
        value           nonuniform List<scalar> 
20
(
1.38585e-34
5.68312e-33
6.10766e-33
3.0825e-34
8.48347e-34
3.7416e-34
5.60292e-34
6.2544e-34
8.31411e-34
1.13156e-33
1.2384e-33
2.65199e-34
1.14199e-33
1.56501e-33
1.0338e-33
1.62653e-33
5.76283e-34
6.9476e-33
5.94967e-33
1.38716e-34
)
;
    }
    outlet
    {
        type            calculated;
        value           nonuniform List<scalar> 
27
(
1.24217e-33
9.90224e-34
6.42231e-34
2.74629e-34
6.88391e-35
7.63152e-36
1.3834e-39
5.05957e-36
5.33157e-35
2.24284e-34
5.58437e-34
9.08873e-34
1.16942e-33
1.36256e-33
1.51489e-33
1.63436e-33
7.11129e-34
4.92457e-36
3.50748e-38
1.62656e-40
1.28632e-40
2.89866e-38
3.7597e-36
5.08091e-34
1.68733e-33
1.57575e-33
1.42886e-33
)
;
    }
    lowerWall
    {
        type            fixedValue;
        value           uniform 0;
    }
    upperWall
    {
        type            fixedValue;
        value           uniform 0;
    }
    defaultFaces
    {
        type            empty;
    }
}


// ************************************************************************* //
