/*--------------------------------*- C++ -*----------------------------------*\
| =========                 |                                                 |
| \\      /  F ield         | OpenFOAM: The Open Source CFD Toolbox           |
|  \\    /   O peration     | Version:  2112                                  |
|   \\  /    A nd           | Website:  www.openfoam.com                      |
|    \\/     M anipulation  |                                                 |
\*---------------------------------------------------------------------------*/
FoamFile
{
    version     2.0;
    format      ascii;
    arch        "LSB;label=32;scalar=64";
    class       volScalarField;
    location    "0.12";
    object      p;
}
// * * * * * * * * * * * * * * * * * * * * * * * * * * * * * * * * * * * * * //

dimensions      [0 2 -2 0 0 0 0];

internalField   nonuniform List<scalar> 
1880
(
0.00420477
0.00406987
0.00397931
0.00392373
0.00389677
0.00388516
0.00386176
0.00382707
0.00380392
0.00379288
0.00378094
0.00376817
0.00376256
0.00376671
0.00377624
0.00379103
0.00380881
0.00383622
0.00386591
0.00391179
0.00395791
0.00403041
0.00410426
0.00421503
0.00433713
0.00450669
0.00470645
0.00497817
0.0052934
0.00573347
0.00402366
0.00399407
0.00395586
0.0039085
0.00387717
0.00387121
0.00385441
0.0038193
0.00379507
0.00378711
0.00377803
0.00376519
0.00375877
0.00376303
0.00377212
0.0037859
0.00380173
0.00382726
0.00385477
0.00389734
0.00394097
0.00400677
0.00407697
0.00417411
0.00428895
0.00442586
0.00460718
0.00478386
0.00503235
0.00518918
0.00399078
0.00397315
0.00394674
0.00390314
0.00387055
0.0038652
0.00385012
0.00381603
0.00379385
0.00378917
0.00378195
0.00376814
0.00375936
0.00376064
0.00376686
0.00377647
0.00378927
0.00380933
0.00383409
0.0038679
0.0039085
0.00395989
0.00402408
0.00409779
0.00419304
0.00429321
0.00441953
0.00454316
0.0046711
0.00475245
0.00393287
0.00392562
0.00391422
0.00388119
0.0038521
0.00384889
0.00383706
0.00380538
0.00378424
0.00378051
0.00377412
0.00376016
0.00375015
0.00374977
0.00375367
0.00376044
0.00376939
0.00378482
0.00380418
0.00383066
0.00386325
0.00390252
0.00395272
0.00400676
0.00407533
0.0041422
0.00422417
0.0042833
0.00434567
0.00434457
0.00390443
0.00390164
0.00389652
0.00386864
0.00384176
0.00383954
0.00382885
0.0037982
0.0037777
0.00377437
0.0037679
0.00375288
0.00374082
0.00373769
0.00373835
0.00374111
0.00374556
0.00375501
0.00376841
0.00378555
0.00380989
0.00383382
0.00387105
0.0039011
0.00394862
0.00398097
0.00402412
0.00403889
0.00404127
0.0039958
0.00387776
0.00387647
0.00387439
0.00385038
0.00382634
0.00382565
0.00381612
0.00378656
0.00376667
0.00376336
0.00375642
0.00374039
0.00372656
0.00372101
0.00371848
0.00371739
0.003717
0.00372064
0.00372698
0.00373547
0.00374916
0.00376048
0.00378079
0.00379412
0.00381391
0.00382431
0.00382672
0.00381088
0.0037696
0.00369288
0.00385787
0.00385788
0.00385792
0.00383645
0.00381436
0.0038147
0.00380572
0.00377652
0.00375663
0.00375281
0.00374487
0.0037273
0.00371126
0.00370284
0.00369675
0.00369135
0.00368584
0.00368324
0.0036824
0.0036818
0.00368534
0.00368337
0.00368962
0.00368406
0.00368406
0.00366965
0.00364385
0.00360161
0.00352976
0.00343043
0.00384211
0.00384269
0.0038437
0.00382347
0.00380243
0.00380334
0.00379453
0.00376531
0.00374512
0.00374056
0.00373141
0.00371216
0.00369384
0.00368253
0.00367289
0.00366318
0.00365254
0.00364385
0.00363573
0.0036267
0.00361988
0.0036067
0.0035981
0.00357851
0.00355749
0.00352591
0.00347532
0.00341178
0.00332119
0.00319998
0.00382999
0.00383083
0.0038323
0.00381269
0.00379217
0.00379327
0.00378433
0.00375474
0.00373388
0.00372825
0.00371764
0.00369645
0.00367569
0.00366135
0.0036481
0.00363406
0.00361837
0.0036037
0.00358861
0.00357152
0.00355519
0.00353141
0.0035102
0.00347697
0.00343991
0.00339205
0.00332305
0.00324349
0.0031366
0.00300297
0.00382126
0.00382214
0.00382369
0.00380416
0.0037836
0.00378442
0.00377496
0.0037446
0.00372273
0.00371579
0.00370353
0.00368028
0.00365702
0.00363967
0.00362289
0.00360464
0.00358411
0.00356379
0.0035421
0.00351769
0.0034925
0.0034596
0.00342675
0.0033824
0.00333131
0.0032701
0.00318773
0.00309402
0.00297786
0.00283324
0.00381586
0.00381661
0.00381789
0.00379796
0.00377684
0.00377695
0.00376662
0.0037352
0.00371204
0.00370358
0.00368955
0.00366414
0.00363836
0.00361804
0.00359788
0.00357563
0.00355057
0.00352497
0.00349725
0.0034662
0.00343311
0.00339216
0.00334935
0.00329534
0.00323294
0.00316087
0.00306798
0.00296453
0.00283962
0.00268968
0.00381387
0.00381431
0.00381503
0.0037943
0.00377222
0.00377126
0.00375977
0.003727
0.00370229
0.00369211
0.00367618
0.00364856
0.00362025
0.00359705
0.00357368
0.00354768
0.00351845
0.00348804
0.00345488
0.00341794
0.00337786
0.00333003
0.00327866
0.00321662
0.00314521
0.00306414
0.00296404
0.00285233
0.00272235
0.00256839
0.00381555
0.00381544
0.00381511
0.00379289
0.00376916
0.00376666
0.00375368
0.00371926
0.00369278
0.00368077
0.00366295
0.00363319
0.00360255
0.00357672
0.00355047
0.0035211
0.00348817
0.00345351
0.0034156
0.00337354
0.00332744
0.00327378
0.00321527
0.00314665
0.00306808
0.00298005
0.0028744
0.00275715
0.00262279
0.00246732
0.0038217
0.00382092
0.00381937
0.00379539
0.00376971
0.00376544
0.00375077
0.00371448
0.00368595
0.00367185
0.00365172
0.00361964
0.00358653
0.0035581
0.00352913
0.0034967
0.00346047
0.00342205
0.00338003
0.00333358
0.00328239
0.00322385
0.00315951
0.00308556
0.00300152
0.00290799
0.00279852
0.00267707
0.00254019
0.0023841
0.00383226
0.00382985
0.00382559
0.0037983
0.00376967
0.0037631
0.00374637
0.00370786
0.00367706
0.00366087
0.0036391
0.00360525
0.00357027
0.00353995
0.00350894
0.00347411
0.00343524
0.00339377
0.00334841
0.00329834
0.003243
0.00318052
0.00311151
0.00303338
0.00294519
0.00284751
0.0027353
0.00261118
0.00247264
0.00231686
0.00385178
0.00384773
0.0038401
0.00380836
0.00377612
0.00376704
0.00374793
0.00370683
0.00367365
0.00365538
0.00363137
0.00359493
0.00355755
0.00352499
0.00349183
0.00345472
0.00341354
0.00336949
0.00332135
0.00326832
0.00320964
0.003144
0.00307138
0.00299001
0.00289878
0.002798
0.00268401
0.00255817
0.00241891
0.00226391
0.00387277
0.00386411
0.00384989
0.00381249
0.00377727
0.00376623
0.0037448
0.00370115
0.00366542
0.00364452
0.00361807
0.00358014
0.00354228
0.00350894
0.00347519
0.00343698
0.00339448
0.00334877
0.00329868
0.0032435
0.00318234
0.00311435
0.00303902
0.00295528
0.00286189
0.00275894
0.00264386
0.0025171
0.00237769
0.00222375
0.00392638
0.00390711
0.00387748
0.003829
0.00378968
0.00377576
0.00375017
0.00370304
0.00366512
0.00364194
0.00361314
0.00357347
0.00353402
0.00349909
0.00346339
0.00342369
0.00337999
0.00333289
0.00328128
0.00322447
0.00316145
0.00309176
0.00301446
0.00292909
0.00283421
0.00272984
0.00261424
0.00248706
0.00234792
0.00219519
0.00395498
0.00392372
0.00388213
0.00382952
0.00379095
0.00377581
0.00374769
0.00369844
0.00365718
0.00362936
0.00359722
0.00355676
0.0035181
0.00348462
0.0034501
0.00341138
0.00336796
0.00332067
0.00326843
0.00321087
0.00314673
0.00307614
0.00299756
0.00291123
0.00281547
0.0027102
0.00259451
0.00246739
0.00232875
0.00217711
0.00413455
0.0039978
0.00390359
0.00384247
0.00380799
0.00378681
0.00375157
0.00370219
0.00366147
0.00363004
0.00359455
0.0035538
0.00351538
0.00348078
0.00344537
0.00340608
0.00336258
0.00331495
0.00326231
0.00320422
0.00313958
0.00306845
0.00298931
0.00290249
0.00280633
0.00270075
0.00258504
0.00245841
0.00232064
0.00217133
0.00595775
0.00517548
0.004381
0.00399019
0.00338289
0.00231081
0.00200968
0.00136828
-0.00213518
-0.000458453
0.00526474
0.0046367
0.00374017
0.00354617
0.00269168
0.00162463
0.00125699
-5.82274e-05
-0.00192491
-0.00252228
0.00477737
0.00427544
0.00371036
0.0033247
0.00258718
0.0017274
0.00105624
0.000105321
-0.00162316
-0.00249962
0.00427967
0.00388199
0.00326061
0.00285738
0.00222862
0.00142696
0.000824933
1.0145e-05
-0.00115032
-0.0022684
0.00391823
0.0035556
0.00309053
0.00266686
0.00210091
0.00141477
0.000754135
2.32849e-05
-0.00101799
-0.00196792
0.00358335
0.00324561
0.00280632
0.00234473
0.00184166
0.00120909
0.000563819
-0.000104116
-0.000888601
-0.00169621
0.00330828
0.00300269
0.00260626
0.00218463
0.00172668
0.00116323
0.000558263
-3.76235e-05
-0.000712728
-0.00138996
0.00306477
0.00276849
0.00241102
0.00198855
0.00155295
0.00105056
0.000490754
-5.83319e-05
-0.00061104
-0.00117539
0.00285528
0.00259275
0.00224888
0.00186778
0.00146731
0.00100831
0.000509634
2.68153e-05
-0.00045461
-0.000925458
0.00267981
0.00242569
0.00211122
0.00175197
0.00136897
0.000952089
0.000506243
6.69155e-05
-0.000349007
-0.000755595
0.00252879
0.00229634
0.00199965
0.00166851
0.00131458
0.000931054
0.000535586
0.000147092
-0.000224248
-0.000576211
0.00240494
0.00218248
0.00190671
0.00159852
0.00126597
0.000912942
0.000557585
0.000205573
-0.000127512
-0.000442388
0.00230116
0.00209096
0.0018333
0.00154637
0.00123745
0.00091271
0.00058998
0.000272119
-3.1564e-05
-0.000315869
0.00221722
0.00201545
0.00177405
0.00150582
0.00121732
0.000916201
0.000619381
0.000327487
4.79133e-05
-0.00021428
0.00214959
0.00195516
0.00172791
0.0014765
0.00120664
0.000926694
0.000650723
0.000379994
0.000119658
-0.000124934
0.002097
0.00190813
0.00169262
0.0014555
0.0012021
0.000939558
0.000679675
0.000425009
0.000179629
-5.16617e-05
0.00205746
0.00187279
0.00166645
0.00144143
0.00120197
0.000953837
0.000706607
0.000464132
0.000230366
9.21414e-06
0.00203021
0.00184897
0.00164984
0.00143429
0.00120619
0.000969033
0.000730861
0.000496912
0.000271442
5.75329e-05
0.00201265
0.00183373
0.00163999
0.00143157
0.00121177
0.000983035
0.000751687
0.000523656
0.000303355
9.43067e-05
0.00200984
0.00183391
0.00164354
0.00143897
0.00122286
0.000998027
0.000770305
0.000544869
0.000326755
0.00011841
-0.00698954
-0.0075765
-0.00875557
-0.0105821
-0.010811
-0.00927794
-0.00648435
-0.00376868
-0.00154316
3.63158e-05
0.000975774
0.00146575
0.00165325
0.00166367
0.00158086
0.00145585
0.00131766
0.00118183
0.00105563
0.000941739
0.000840461
0.000750942
0.000671866
0.000601821
0.000539473
0.000483632
0.000433271
0.000387501
0.000345602
0.000306927
0.000270987
0.000237305
0.000205517
0.000175304
0.00014634
0.000118429
9.12976e-05
6.47868e-05
3.86885e-05
1.28787e-05
-0.00703457
-0.00766781
-0.00909473
-0.0113463
-0.0117316
-0.0100779
-0.00703553
-0.00408312
-0.00170518
-5.87531e-05
0.000926973
0.00143213
0.0016233
0.00163474
0.00155318
0.00143039
0.00129529
0.00116275
0.0010397
0.000928648
0.000829795
0.000742281
0.000664825
0.000596078
0.00053477
0.000479763
0.000430074
0.000384851
0.000343399
0.000305097
0.000269463
0.000236047
0.000204476
0.000174457
0.000145656
0.000117889
9.08894e-05
6.4493e-05
3.85119e-05
1.28194e-05
-0.00717765
-0.00840981
-0.0103361
-0.0134227
-0.0141384
-0.0120133
-0.00834959
-0.00484545
-0.00211335
-0.000269497
0.000807673
0.0013435
0.00154461
0.0015627
0.00148903
0.00137515
0.00124899
0.00112477
0.001009
0.000904011
0.000810063
0.00072644
0.000652048
0.000585712
0.000526309
0.000472818
0.000424344
0.000380109
0.000339462
0.000301831
0.000266749
0.000233804
0.000202632
0.000172953
0.000144455
0.000116946
9.01863e-05
6.40067e-05
3.82314e-05
1.2733e-05
-0.00804904
-0.00891775
-0.0112683
-0.0154807
-0.0172155
-0.0150136
-0.0104432
-0.00604506
-0.00276434
-0.000609734
0.000620463
0.00120863
0.00142777
0.00145794
0.00139764
0.00129806
0.00118547
0.00107316
0.000967358
0.000870483
0.000783032
0.000704574
0.00063428
0.000571202
0.0005144
0.000462999
0.000416218
0.000373365
0.000333853
0.000297168
0.000262874
0.000230596
0.000199991
0.000170797
0.000142728
0.000115592
8.91734e-05
6.33053e-05
3.78208e-05
1.26003e-05
-0.00816951
-0.0103274
-0.0126064
-0.0176198
-0.0198394
-0.0178423
-0.0125568
-0.00717886
-0.00345125
-0.000984304
0.000400868
0.00103782
0.00127318
0.00131861
0.00127753
0.00119816
0.00110396
0.00100727
0.000914322
0.00082781
0.000748623
0.000676725
0.000611633
0.000552689
0.000499191
0.000450449
0.000405822
0.00036473
0.000326669
0.000291189
0.000257903
0.000226476
0.000196598
0.000168028
0.000140506
0.000113852
8.78688e-05
6.24002e-05
3.72885e-05
1.24234e-05
-0.00790105
-0.010283
-0.0119463
-0.0164517
-0.0191959
-0.0182247
-0.0131745
-0.00778401
-0.00390903
-0.00129764
0.000197485
0.000852286
0.00109434
0.00115589
0.00113714
0.00108188
0.00100972
0.000931581
0.000853547
0.000778824
0.000708942
0.000644409
0.000585183
0.000530942
0.000481236
0.000435572
0.000393459
0.000354436
0.000318085
0.000284033
0.000251946
0.000221534
0.000192523
0.0001647
0.000137833
0.000111759
8.62979e-05
6.1309e-05
3.66462e-05
1.22102e-05
-0.00579645
-0.0101901
-0.0101803
-0.0136369
-0.0163427
-0.016115
-0.0120932
-0.00753519
-0.00408036
-0.00166791
-0.00015885
0.000561874
0.000855436
0.000957
0.000976176
0.000952259
0.000904626
0.000846242
0.000784411
0.000722875
0.000663597
0.000607511
0.000555
0.000506122
0.000460732
0.000418564
0.000379306
0.000342633
0.000308231
0.000275806
0.000245088
0.000215838
0.000187823
0.00016086
0.000134746
0.00010934
8.44812e-05
6.00457e-05
3.59024e-05
1.19631e-05
-0.00615486
-0.00905232
-0.00999818
-0.0113351
-0.0131816
-0.0132697
-0.0103065
-0.00671872
-0.0038374
-0.0018168
-0.000624026
3.42905e-06
0.000406248
0.000662772
0.000775076
0.000805402
0.000792572
0.000758236
0.000713741
0.000665144
0.000615926
0.000567942
0.000522086
0.000478704
0.000437851
0.000399443
0.000363308
0.000329238
0.000297013
0.000266419
0.00023725
0.000209319
0.000182437
0.000156454
0.000131202
0.00010656
8.23931e-05
5.85927e-05
3.50466e-05
1.16786e-05
-0.0050634
-0.00797084
-0.00888502
-0.00928241
-0.0104212
-0.0102982
-0.00808089
-0.00563253
-0.00355227
-0.00190394
-0.000897655
-0.000438783
-0.000100015
0.000237803
0.000491347
0.000620836
0.000659963
0.00065551
0.000630612
0.000597206
0.000560549
0.000522728
0.000484955
0.000448011
0.000412344
0.000378161
0.000345503
0.000314314
0.000284498
0.00025593
0.000228479
0.000202014
0.000176393
0.000151507
0.000127217
0.000103433
8.00427e-05
5.69563e-05
3.40824e-05
1.13581e-05
-0.00396647
-0.0059847
-0.00689189
-0.00737198
-0.00807423
-0.00796906
-0.00639135
-0.00462719
-0.00313228
-0.00186212
-0.00100837
-0.000610544
-0.000293062
5.59389e-05
0.000313075
0.000456663
0.000528713
0.000555549
0.000555255
0.000537529
0.000510715
0.000480219
0.000448639
0.000417117
0.000386166
0.000356026
0.000326811
0.000298548
0.000271216
0.000244762
0.000219116
0.000194201
0.00016992
0.000146201
0.000122941
0.000100075
7.75163e-05
5.51965e-05
3.30451e-05
1.10131e-05
-0.00323653
-0.00460589
-0.00557452
-0.005949
-0.00633962
-0.00628846
-0.00518356
-0.00378613
-0.00261933
-0.00170878
-0.0010328
-0.000558681
-0.000165834
0.000127335
0.000332249
0.000431584
0.00047127
0.0004823
0.00047877
0.000467851
0.000451732
0.000431614
0.000408658
0.000383987
0.000358505
0.000332814
0.000307273
0.000282079
0.000257333
0.000233073
0.000209302
0.000185999
0.000163115
0.000140617
0.000118436
9.65331e-05
7.48508e-05
5.33389e-05
3.19497e-05
1.0649e-05
-0.00259138
-0.00356417
-0.00435549
-0.0047318
-0.0050383
-0.00497786
-0.0042462
-0.00327392
-0.00238897
-0.00162827
-0.00110622
-0.000920058
-0.000719846
-0.000282712
0.00014527
0.000369742
0.000440418
0.00044993
0.000442119
0.00042847
0.000411782
0.000393292
0.000373606
0.000352981
0.000331615
0.000309738
0.00028758
0.000265331
0.000243132
0.000221068
0.000199194
0.000177533
0.000156079
0.000134835
0.000113767
9.28596e-05
7.20841e-05
5.14098e-05
3.08119e-05
1.02707e-05
-0.00216667
-0.00286755
-0.00350028
-0.00382916
-0.00405502
-0.0040521
-0.00356717
-0.00283789
-0.00211763
-0.00143517
-0.000948731
-0.00079605
-0.000668121
-0.000361007
-7.34083e-05
0.000110042
0.000218947
0.000282965
0.000319208
0.000337758
0.000344049
0.000341435
0.000332512
0.000319392
0.000303602
0.000286124
0.000267581
0.000248366
0.000228747
0.000208894
0.000188927
0.00016892
0.000148911
0.000128938
0.000108999
8.91054e-05
6.92548e-05
4.94361e-05
2.96474e-05
9.88343e-06
-0.00179678
-0.00229744
-0.00281112
-0.00311636
-0.00328924
-0.00328893
-0.00296816
-0.00246993
-0.00195838
-0.00150802
-0.00114732
-0.000798331
-0.000450051
-0.000149799
5.60053e-05
0.000181436
0.000251302
0.000288004
0.000305562
0.000311902
0.000311597
0.000307148
0.000299673
0.000289638
0.00027741
0.000263403
0.000248023
0.000231613
0.000214454
0.000196749
0.000178655
0.000160284
0.000141712
0.000123007
0.000104198
8.53218e-05
6.64013e-05
4.74447e-05
2.84721e-05
9.49254e-06
-0.00150969
-0.00190238
-0.00231317
-0.00257391
-0.00272099
-0.00274047
-0.00252069
-0.0021406
-0.00171805
-0.00131789
-0.000982545
-0.00073126
-0.000546451
-0.000366189
-0.00018944
-4.57799e-05
6.21684e-05
0.000140317
0.000194393
0.000229637
0.000250363
0.000260116
0.000261972
0.000258371
0.000250975
0.000240857
0.000228739
0.000215122
0.000200376
0.000184767
0.000168502
0.000151734
0.000134574
0.000117118
9.94272e-05
8.15587e-05
6.35616e-05
4.54619e-05
2.73016e-05
9.10322e-06
-0.00124069
-0.00155572
-0.00188226
-0.00211722
-0.00225011
-0.0022785
-0.00213523
-0.00185598
-0.00155188
-0.00128621
-0.00101107
-0.000732473
-0.000487945
-0.000270766
-0.000103759
1.3484e-05
9.34116e-05
0.000147081
0.000182377
0.000205183
0.000219609
0.000227999
0.000231478
0.000230774
0.000226585
0.000219569
0.000210293
0.000199222
0.000186733
0.000173116
0.000158604
0.000143382
0.000127589
0.000111349
9.47481e-05
7.78649e-05
6.07723e-05
4.35134e-05
2.61511e-05
8.72052e-06
-0.00103126
-0.00129749
-0.00157257
-0.00177969
-0.0018931
-0.00192292
-0.00183734
-0.00163827
-0.00139132
-0.0011284
-0.000880598
-0.000681798
-0.00051031
-0.000361168
-0.000226771
-0.000113413
-2.13723e-05
5.14239e-05
0.000106703
0.000146555
0.00017352
0.000190409
0.000199787
0.000203559
0.000203041
0.000199171
0.000192647
0.000183999
0.000173648
0.000161917
0.000149073
0.000135326
0.000120843
0.00010577
9.02188e-05
7.42865e-05
5.80687e-05
4.16241e-05
2.50353e-05
8.34933e-06
-0.000836123
-0.00106836
-0.00129605
-0.00147819
-0.00159162
-0.00163319
-0.00157843
-0.00142702
-0.00123809
-0.00105291
-0.00086961
-0.000680727
-0.000505612
-0.000343107
-0.000207178
-0.000101834
-2.1769e-05
3.86126e-05
8.39045e-05
0.000117883
0.000143065
0.000160937
0.000172627
0.000179158
0.000181431
0.000180205
0.000176111
0.000169661
0.000161279
0.000151303
0.00014002
0.00012766
0.000114415
0.000100448
8.58941e-05
7.08674e-05
5.5484e-05
3.98173e-05
2.39679e-05
7.99427e-06
-0.000679462
-0.000888688
-0.00109
-0.0012567
-0.00135857
-0.00139935
-0.00137276
-0.00127372
-0.0011254
-0.000959678
-0.000790202
-0.000632808
-0.000490564
-0.000363429
-0.000253336
-0.000158343
-7.80072e-05
-1.20077e-05
4.03413e-05
8.04732e-05
0.000110397
0.00013205
0.000146992
0.000156449
0.000161397
0.000162617
0.000160748
0.000156309
0.000149734
0.000141377
0.000131539
0.000120469
0.000108377
9.54446e-05
8.18247e-05
6.76482e-05
5.30494e-05
3.81148e-05
2.2962e-05
7.65965e-06
-0.000540972
-0.000732804
-0.00091104
-0.00106056
-0.0011611
-0.00120947
-0.00120147
-0.00112721
-0.00101028
-0.000879954
-0.00074921
-0.000618834
-0.000490751
-0.000371316
-0.000264537
-0.000173596
-9.82705e-05
-3.66323e-05
1.32139e-05
5.28811e-05
8.38022e-05
0.000107258
0.000124365
0.000136092
0.000143272
0.000146611
0.000146709
0.000144069
0.000139126
0.000132237
0.000123719
0.000113829
0.000102796
9.08153e-05
7.80572e-05
6.46663e-05
5.07935e-05
3.65369e-05
2.20296e-05
7.34946e-06
-0.00042639
-0.000607018
-0.00077125
-0.000910522
-0.00100623
-0.00105698
-0.00106146
-0.00101358
-0.00092634
-0.00081976
-0.000706971
-0.000592129
-0.000479395
-0.000373662
-0.000278365
-0.000195356
-0.000124013
-6.36376e-05
-1.35397e-05
2.72222e-05
5.97313e-05
8.50506e-05
0.000104149
0.00011789
0.000127032
0.000132235
0.000134071
0.000133029
0.000129542
0.000123968
0.000116634
0.000107808
9.77311e-05
8.66109e-05
7.46338e-05
6.19559e-05
4.87422e-05
3.51018e-05
2.11815e-05
7.06733e-06
-0.000329256
-0.000501632
-0.000655574
-0.000785321
-0.000878277
-0.000932751
-0.000948284
-0.000918194
-0.000850541
-0.000763449
-0.000669065
-0.000571193
-0.000472752
-0.000377977
-0.00029053
-0.000212453
-0.000144118
-8.53339e-05
-3.5677e-05
5.52123e-06
3.90715e-05
6.58052e-05
8.65165e-05
0.000101943
0.00011276
0.000119571
0.000122916
0.000123271
0.000121059
0.000116643
0.000110353
0.000102465
9.32344e-05
8.28764e-05
7.1592e-05
5.95471e-05
4.69188e-05
3.38263e-05
2.04278e-05
6.81656e-06
-0.000249418
-0.000416897
-0.000564126
-0.00068758
-0.000778574
-0.000835581
-0.000858076
-0.000841415
-0.000790908
-0.000720526
-0.000640667
-0.000555416
-0.000467643
-0.00038147
-0.000300559
-0.000226974
-0.000161417
-0.000104038
-5.47292e-05
-1.31241e-05
2.13334e-05
4.92802e-05
7.13677e-05
8.82326e-05
0.000100479
0.000108665
0.000113305
0.000114858
0.000113742
0.000110322
0.000104931
9.78529e-05
8.93519e-05
7.9651e-05
6.89651e-05
5.74668e-05
4.53437e-05
3.27248e-05
1.9777e-05
6.60023e-06
-0.000184248
-0.000348938
-0.000491962
-0.000611003
-0.000700462
-0.000759348
-0.000787483
-0.00078149
-0.000744548
-0.000687333
-0.000618935
-0.000543741
-0.00046472
-0.000385623
-0.000309935
-0.000239835
-0.00017636
-0.000119984
-7.08567e-05
-2.88398e-05
6.42581e-06
3.54219e-05
5.86849e-05
7.67687e-05
9.02203e-05
9.95632e-05
0.000105288
0.000107845
0.000107647
0.000105059
0.000100418
9.40135e-05
8.61216e-05
7.6967e-05
6.678e-05
5.57365e-05
4.40335e-05
3.18094e-05
1.92364e-05
6.42001e-06
-0.000133421
-0.000297122
-0.000437702
-0.000554003
-0.000642544
-0.000702803
-0.000735169
-0.000737393
-0.000711047
-0.000664087
-0.000604543
-0.000537035
-0.000464658
-0.000390878
-0.000319021
-0.00025139
-0.000189299
-0.000133478
-8.4288e-05
-4.17719e-05
-5.72705e-06
2.42079e-05
4.84828e-05
6.75918e-05
8.20417e-05
9.23321e-05
9.89377e-05
0.000102305
0.00010284
0.000100916
9.68699e-05
9.10003e-05
8.35893e-05
7.48635e-05
6.50706e-05
5.43819e-05
4.30091e-05
3.10949e-05
1.88162e-05
6.28354e-06
-9.52808e-05
-0.000260673
-0.000401102
-0.000515876
-0.000603543
-0.000664555
-0.000699976
-0.000708561
-0.000690807
-0.00065218
-0.000599365
-0.000537143
-0.000469062
-0.000398559
-0.000328865
-0.000262416
-0.000200773
-0.000144876
-9.5241e-05
-5.20412e-05
-1.51788e-05
1.56303e-05
4.07835e-05
6.07423e-05
7.59926e-05
8.70247e-05
9.43054e-05
9.82861e-05
9.93663e-05
9.79376e-05
9.4324e-05
8.88459e-05
8.17833e-05
7.33636e-05
6.38576e-05
5.34193e-05
4.22827e-05
3.05895e-05
1.85218e-05
6.18968e-06
-7.38372e-05
-0.000240898
-0.000382033
-0.000496525
-0.000583605
-0.000644785
-0.00068162
-0.000693107
-0.000679547
-0.000645433
-0.000596513
-0.000537498
-0.000472013
-0.000403481
-0.00033507
-0.000269277
-0.000207824
-0.0001518
-0.000101827
-5.81594e-05
-2.07636e-05
1.05989e-05
3.62963e-05
5.67725e-05
7.25038e-05
8.39758e-05
9.16538e-05
9.59918e-05
9.73877e-05
9.62434e-05
9.28756e-05
8.76228e-05
8.07529e-05
7.25099e-05
6.31599e-05
5.28625e-05
4.1856e-05
3.02824e-05
1.83357e-05
6.12574e-06
)
;

boundaryField
{
    inlet
    {
        type            zeroGradient;
    }
    outlet
    {
        type            fixedValue;
        value           uniform 0;
    }
    lowerWall
    {
        type            zeroGradient;
    }
    upperWall
    {
        type            zeroGradient;
    }
    defaultFaces
    {
        type            empty;
    }
}


// ************************************************************************* //
