/*--------------------------------*- C++ -*----------------------------------*\
| =========                 |                                                 |
| \\      /  F ield         | OpenFOAM: The Open Source CFD Toolbox           |
|  \\    /   O peration     | Version:  2112                                  |
|   \\  /    A nd           | Website:  www.openfoam.com                      |
|    \\/     M anipulation  |                                                 |
\*---------------------------------------------------------------------------*/
FoamFile
{
    version     2.0;
    format      ascii;
    arch        "LSB;label=32;scalar=64";
    class       volVectorField;
    location    "0.12";
    object      U;
}
// * * * * * * * * * * * * * * * * * * * * * * * * * * * * * * * * * * * * * //

dimensions      [0 1 -1 0 0 0 0];

internalField   nonuniform List<vector> 
1880
(
(0.0990276 0.000573957 0)
(0.0985361 0.00118665 0)
(0.0972288 0.00133077 0)
(0.0958629 0.00126658 0)
(0.0943388 0.00128221 0)
(0.092391 0.00135658 0)
(0.0906998 0.00143425 0)
(0.0891933 0.00151116 0)
(0.0873105 0.00148637 0)
(0.0853179 0.00127216 0)
(0.0837578 0.00095463 0)
(0.08266 0.000667683 0)
(0.0818021 0.000465789 0)
(0.0811107 0.000324879 0)
(0.0805584 0.000257809 0)
(0.0801159 0.00020675 0)
(0.0796584 0.000247335 0)
(0.0792076 0.00020718 0)
(0.0786425 0.000350672 0)
(0.078055 0.000248553 0)
(0.0772797 0.000541108 0)
(0.076431 0.000341227 0)
(0.0752847 0.000830984 0)
(0.0740157 0.000535171 0)
(0.0721765 0.00133106 0)
(0.0701699 0.00094844 0)
(0.0670573 0.00217629 0)
(0.0634471 0.00257679 0)
(0.0572869 0.00301488 0)
(0.0514317 0.0105341 0)
(0.0999855 0.000663517 0)
(0.1004 0.0014274 0)
(0.100553 0.00168753 0)
(0.101062 0.00168454 0)
(0.1014 0.00174636 0)
(0.101111 0.00185824 0)
(0.101056 0.00196384 0)
(0.101406 0.00210222 0)
(0.10149 0.00218099 0)
(0.101234 0.00204413 0)
(0.100999 0.00172217 0)
(0.100842 0.00135997 0)
(0.100569 0.00106771 0)
(0.100232 0.000837209 0)
(0.0998001 0.000734513 0)
(0.0995284 0.00062764 0)
(0.0989483 0.000752767 0)
(0.0988052 0.000625013 0)
(0.0977872 0.00106614 0)
(0.0979604 0.000696394 0)
(0.0961591 0.00165881 0)
(0.0968007 0.000903606 0)
(0.0939594 0.00246168 0)
(0.0948878 0.00157472 0)
(0.090966 0.00349272 0)
(0.0917673 0.00306675 0)
(0.0864738 0.00551534 0)
(0.0866584 0.00583223 0)
(0.0805597 0.0105887 0)
(0.0766501 0.0115839 0)
(0.0999893 0.000233702 0)
(0.100306 0.000671049 0)
(0.100373 0.000971545 0)
(0.100935 0.00110161 0)
(0.101405 0.00119372 0)
(0.101229 0.00129959 0)
(0.101301 0.00141568 0)
(0.101838 0.00154358 0)
(0.102144 0.001632 0)
(0.102109 0.00160673 0)
(0.102077 0.00147492 0)
(0.102078 0.00130275 0)
(0.101911 0.00115626 0)
(0.101613 0.00104573 0)
(0.101225 0.00100912 0)
(0.10093 0.000995511 0)
(0.100446 0.00110987 0)
(0.10022 0.00114347 0)
(0.0994481 0.00148504 0)
(0.099417 0.00142698 0)
(0.0981029 0.00223254 0)
(0.098368 0.00184949 0)
(0.09639 0.00345375 0)
(0.0965875 0.0027589 0)
(0.0945592 0.0050112 0)
(0.0933711 0.00514585 0)
(0.0927065 0.00696747 0)
(0.0886039 0.00987511 0)
(0.0901945 0.0114875 0)
(0.0836781 0.0164594 0)
(0.0999892 0.000220989 0)
(0.100218 0.000628891 0)
(0.100105 0.000947938 0)
(0.100556 0.00113174 0)
(0.101026 0.00124272 0)
(0.100849 0.00133806 0)
(0.100886 0.00144043 0)
(0.101392 0.00156008 0)
(0.101678 0.00167512 0)
(0.101639 0.00172808 0)
(0.101638 0.00169324 0)
(0.101722 0.00159268 0)
(0.101655 0.00148659 0)
(0.101478 0.0013887 0)
(0.101176 0.00136643 0)
(0.101005 0.00134844 0)
(0.100565 0.00149791 0)
(0.100467 0.00153666 0)
(0.0997146 0.00195005 0)
(0.0998192 0.00193271 0)
(0.0985579 0.00281226 0)
(0.0990026 0.00256164 0)
(0.0970219 0.00423712 0)
(0.0978646 0.00365052 0)
(0.0951176 0.00638395 0)
(0.0961835 0.00571451 0)
(0.0930512 0.0096566 0)
(0.0936925 0.00938754 0)
(0.0915973 0.0149411 0)
(0.0905719 0.0160013 0)
(0.0999881 0.000142088 0)
(0.10018 0.000401257 0)
(0.0999885 0.000635267 0)
(0.100381 0.0008166 0)
(0.100839 0.00093549 0)
(0.100654 0.00101793 0)
(0.100669 0.00110407 0)
(0.101146 0.00121582 0)
(0.101409 0.0013415 0)
(0.101363 0.00144387 0)
(0.101387 0.00149635 0)
(0.101528 0.00150107 0)
(0.101532 0.00149067 0)
(0.101431 0.00148286 0)
(0.101191 0.00152027 0)
(0.101097 0.00157891 0)
(0.10071 0.00174449 0)
(0.100697 0.00188531 0)
(0.100007 0.00226247 0)
(0.100184 0.00243216 0)
(0.0991062 0.00318175 0)
(0.0994527 0.00329582 0)
(0.0981209 0.00460146 0)
(0.0982761 0.00482604 0)
(0.0972004 0.00644914 0)
(0.0966196 0.00774538 0)
(0.0963254 0.00883282 0)
(0.0950079 0.0123522 0)
(0.0954547 0.0133628 0)
(0.0945123 0.0174109 0)
(0.0999877 0.000120208 0)
(0.100168 0.000338481 0)
(0.0999397 0.000548273 0)
(0.100287 0.000733776 0)
(0.100721 0.000864805 0)
(0.100526 0.000952831 0)
(0.100526 0.00103846 0)
(0.10098 0.00114864 0)
(0.101222 0.00127984 0)
(0.101167 0.00140491 0)
(0.1012 0.00149649 0)
(0.101375 0.00154717 0)
(0.101427 0.00157805 0)
(0.101393 0.00160945 0)
(0.101216 0.00167645 0)
(0.101201 0.00177483 0)
(0.100875 0.00195747 0)
(0.100953 0.00215645 0)
(0.100329 0.00252563 0)
(0.100615 0.00280482 0)
(0.0996319 0.00349201 0)
(0.100133 0.00378724 0)
(0.0988997 0.00499651 0)
(0.0994002 0.00530329 0)
(0.0982468 0.00715247 0)
(0.0984873 0.00773182 0)
(0.0978485 0.0101669 0)
(0.0975806 0.0114569 0)
(0.0982637 0.0143963 0)
(0.0971722 0.0168922 0)
(0.0999873 9.32807e-05 0)
(0.100157 0.000258155 0)
(0.0999044 0.000417708 0)
(0.100224 0.000573494 0)
(0.100638 0.000693513 0)
(0.100434 0.000772963 0)
(0.10043 0.000846335 0)
(0.100878 0.000947009 0)
(0.101115 0.00107994 0)
(0.101065 0.00122469 0)
(0.101112 0.00135405 0)
(0.101315 0.00145659 0)
(0.101409 0.00154081 0)
(0.101425 0.00162754 0)
(0.101304 0.00173531 0)
(0.10135 0.00188433 0)
(0.10109 0.00208465 0)
(0.101236 0.00234509 0)
(0.100707 0.00269544 0)
(0.101049 0.0030805 0)
(0.100252 0.00366623 0)
(0.100728 0.00418717 0)
(0.0999044 0.00507652 0)
(0.100184 0.00590274 0)
(0.0997825 0.00694644 0)
(0.0996443 0.00856051 0)
(0.0998427 0.00950314 0)
(0.0996961 0.0121134 0)
(0.100165 0.0135665 0)
(0.100818 0.0158906 0)
(0.0999873 7.34598e-05 0)
(0.100151 0.000201673 0)
(0.0998883 0.000328137 0)
(0.100194 0.000463035 0)
(0.100597 0.000576819 0)
(0.100389 0.000654807 0)
(0.100382 0.00072287 0)
(0.100826 0.000816029 0)
(0.101062 0.000945766 0)
(0.101015 0.00109786 0)
(0.101078 0.00124649 0)
(0.101305 0.00137931 0)
(0.101434 0.00149716 0)
(0.101494 0.0016209 0)
(0.101425 0.00175702 0)
(0.101524 0.00194211 0)
(0.101334 0.0021553 0)
(0.101538 0.00245747 0)
(0.101108 0.00279372 0)
(0.101506 0.00324038 0)
(0.100856 0.00376637 0)
(0.101395 0.00437412 0)
(0.100763 0.00515715 0)
(0.101157 0.00602092 0)
(0.100965 0.00703878 0)
(0.101007 0.00836435 0)
(0.101502 0.0095934 0)
(0.101381 0.011479 0)
(0.102553 0.0129617 0)
(0.102616 0.0154554 0)
(0.0999873 5.57081e-05 0)
(0.100149 0.000150285 0)
(0.0998808 0.000244339 0)
(0.10018 0.000353413 0)
(0.100576 0.000452691 0)
(0.100367 0.000521716 0)
(0.100361 0.000578939 0)
(0.100807 0.000660259 0)
(0.101048 0.000783015 0)
(0.101011 0.000938157 0)
(0.10109 0.00110084 0)
(0.101341 0.00125806 0)
(0.101503 0.00140461 0)
(0.101599 0.00156064 0)
(0.101581 0.00172232 0)
(0.101723 0.00193761 0)
(0.101605 0.00216165 0)
(0.101849 0.00249388 0)
(0.10153 0.00281441 0)
(0.101954 0.00330372 0)
(0.101476 0.0037601 0)
(0.102019 0.0044527 0)
(0.101633 0.00505479 0)
(0.102026 0.00608301 0)
(0.102118 0.00676383 0)
(0.102245 0.00827407 0)
(0.102877 0.00911393 0)
(0.103197 0.0109208 0)
(0.103966 0.0123067 0)
(0.105019 0.0139024 0)
(0.0999873 3.869e-05 0)
(0.100148 0.000101219 0)
(0.0998793 0.000163728 0)
(0.100177 0.000246192 0)
(0.100574 0.000329519 0)
(0.100367 0.000389473 0)
(0.100367 0.000436929 0)
(0.100819 0.000506421 0)
(0.101067 0.000619625 0)
(0.101042 0.000772476 0)
(0.101138 0.000942221 0)
(0.101412 0.00111589 0)
(0.101605 0.00128387 0)
(0.101733 0.0014642 0)
(0.101762 0.0016459 0)
(0.101939 0.00188201 0)
(0.101892 0.00211423 0)
(0.102165 0.00246076 0)
(0.101954 0.00276987 0)
(0.102396 0.00326971 0)
(0.102072 0.0036818 0)
(0.102629 0.0043851 0)
(0.102427 0.00489601 0)
(0.102867 0.00591128 0)
(0.103142 0.00648506 0)
(0.103353 0.00786485 0)
(0.104182 0.00861412 0)
(0.104527 0.0102199 0)
(0.105602 0.01121 0)
(0.106484 0.013056 0)
(0.0999873 2.1509e-05 0)
(0.10015 5.20379e-05 0)
(0.0998832 8.29996e-05 0)
(0.100184 0.000137616 0)
(0.100587 0.000202496 0)
(0.100388 0.000250908 0)
(0.100395 0.000286178 0)
(0.100856 0.000341001 0)
(0.101115 0.000441209 0)
(0.101104 0.00058746 0)
(0.101218 0.000759374 0)
(0.101514 0.000944342 0)
(0.101736 0.0011294 0)
(0.101891 0.00132935 0)
(0.101963 0.00152769 0)
(0.102168 0.001778 0)
(0.102186 0.00201564 0)
(0.10248 0.00236572 0)
(0.102372 0.00266254 0)
(0.102818 0.00315589 0)
(0.102642 0.00352563 0)
(0.103198 0.00421867 0)
(0.103163 0.00463884 0)
(0.10364 0.00563114 0)
(0.104043 0.00607891 0)
(0.104383 0.0073501 0)
(0.105227 0.0080029 0)
(0.105824 0.00932134 0)
(0.106767 0.0103044 0)
(0.107947 0.011596 0)
(0.0999873 3.43176e-06 0)
(0.100153 4.04758e-07 0)
(0.0998918 -1.45505e-06 0)
(0.1002 2.47211e-05 0)
(0.100613 7.24125e-05 0)
(0.100425 0.000110925 0)
(0.100443 0.000135745 0)
(0.100916 0.000176425 0)
(0.10119 0.00026222 0)
(0.101195 0.000398584 0)
(0.101328 0.000568148 0)
(0.101644 0.000759068 0)
(0.101894 0.000955686 0)
(0.102071 0.00116889 0)
(0.10218 0.00137895 0)
(0.102406 0.0016359 0)
(0.102483 0.00187547 0)
(0.102789 0.00221813 0)
(0.102774 0.00250258 0)
(0.103218 0.00297128 0)
(0.103172 0.00330794 0)
(0.103724 0.00395873 0)
(0.103828 0.00431747 0)
(0.104337 0.00523566 0)
(0.104841 0.00560377 0)
(0.105268 0.00673487 0)
(0.106167 0.00727861 0)
(0.106842 0.00844128 0)
(0.107859 0.00915574 0)
(0.109028 0.0104251 0)
(0.0999873 -1.73541e-05 0)
(0.100159 -5.89481e-05 0)
(0.099908 -9.91377e-05 0)
(0.100232 -0.000107942 0)
(0.100662 -8.44744e-05 0)
(0.100488 -6.18711e-05 0)
(0.100519 -5.30876e-05 0)
(0.101005 -3.14857e-05 0)
(0.101295 3.49858e-05 0)
(0.101315 0.000158311 0)
(0.101466 0.000326344 0)
(0.101799 0.000527266 0)
(0.102071 0.000740261 0)
(0.102266 0.000969567 0)
(0.102405 0.001193 0)
(0.102645 0.0014548 0)
(0.102773 0.00169536 0)
(0.103085 0.00202406 0)
(0.103153 0.00229515 0)
(0.103589 0.00272812 0)
(0.103656 0.00303504 0)
(0.104201 0.00362611 0)
(0.104419 0.00393621 0)
(0.104959 0.00475739 0)
(0.105527 0.00506697 0)
(0.106046 0.00603874 0)
(0.106941 0.00651616 0)
(0.107727 0.00746039 0)
(0.108725 0.00808952 0)
(0.109945 0.00908032 0)
(0.0999873 -4.03851e-05 0)
(0.100166 -0.000123236 0)
(0.0999272 -0.000200869 0)
(0.100269 -0.000237713 0)
(0.10072 -0.000228812 0)
(0.100565 -0.000212761 0)
(0.100613 -0.000212669 0)
(0.101118 -0.000204467 0)
(0.101431 -0.000152445 0)
(0.101474 -3.88798e-05 0)
(0.101648 0.000128426 0)
(0.101999 0.000333024 0)
(0.102287 0.00055082 0)
(0.102489 0.000782891 0)
(0.102647 0.00100751 0)
(0.102892 0.00126232 0)
(0.103058 0.00149518 0)
(0.103368 0.00180004 0)
(0.103503 0.00205277 0)
(0.103928 0.00244025 0)
(0.104091 0.00271746 0)
(0.104625 0.00323623 0)
(0.104935 0.00350617 0)
(0.105498 0.00421659 0)
(0.106114 0.00447832 0)
(0.1067 0.00529782 0)
(0.107598 0.00569607 0)
(0.108441 0.00648361 0)
(0.109451 0.00696539 0)
(0.110663 0.00781431 0)
(0.0999877 -7.42271e-05 0)
(0.100181 -0.000221058 0)
(0.0999716 -0.00035862 0)
(0.100348 -0.000438326 0)
(0.100828 -0.000453841 0)
(0.100693 -0.000455978 0)
(0.100759 -0.000475246 0)
(0.101286 -0.000488295 0)
(0.101621 -0.000455721 0)
(0.101683 -0.000353989 0)
(0.101865 -0.0001866 0)
(0.102215 2.97165e-05 0)
(0.102503 0.000270029 0)
(0.102705 0.000526542 0)
(0.102875 0.000770578 0)
(0.103121 0.00102965 0)
(0.103317 0.00126051 0)
(0.103624 0.00154215 0)
(0.103815 0.00177594 0)
(0.104228 0.00211449 0)
(0.104469 0.00236103 0)
(0.104992 0.00280228 0)
(0.105376 0.00303524 0)
(0.105957 0.00362996 0)
(0.106603 0.00385106 0)
(0.107246 0.00452072 0)
(0.108134 0.00485396 0)
(0.109021 0.00548115 0)
(0.110031 0.00586775 0)
(0.11123 0.00653774 0)
(0.0999881 -0.000101356 0)
(0.100195 -0.000297181 0)
(0.100025 -0.000468236 0)
(0.100451 -0.000558521 0)
(0.100964 -0.000578123 0)
(0.10085 -0.000586003 0)
(0.100942 -0.000613585 0)
(0.101502 -0.000640128 0)
(0.101871 -0.000623074 0)
(0.10196 -0.000528769 0)
(0.102158 -0.000356655 0)
(0.102517 -0.000126917 0)
(0.102807 0.000124215 0)
(0.102995 0.000374472 0)
(0.103153 0.00060307 0)
(0.103376 0.000836508 0)
(0.103578 0.00104246 0)
(0.103868 0.00128389 0)
(0.104096 0.00148664 0)
(0.104492 0.00176788 0)
(0.104792 0.00197788 0)
(0.105303 0.00233802 0)
(0.105742 0.00253254 0)
(0.106335 0.00301271 0)
(0.107002 0.00319305 0)
(0.107686 0.00372453 0)
(0.108565 0.00399045 0)
(0.109476 0.00448149 0)
(0.110486 0.00477239 0)
(0.111662 0.00529761 0)
(0.099989 -0.000188416 0)
(0.100234 -0.000544829 0)
(0.100146 -0.000812091 0)
(0.100635 -0.000921248 0)
(0.101167 -0.000950358 0)
(0.10107 -0.000982665 0)
(0.101194 -0.00103413 0)
(0.101796 -0.00108171 0)
(0.102206 -0.00107996 0)
(0.102319 -0.000976136 0)
(0.102514 -0.000762523 0)
(0.102839 -0.000479291 0)
(0.103078 -0.00018545 0)
(0.103216 9.50173e-05 0)
(0.103352 0.000348697 0)
(0.10356 0.000586731 0)
(0.103773 0.000786007 0)
(0.104055 0.000996994 0)
(0.104315 0.00117213 0)
(0.104702 0.00139728 0)
(0.105049 0.00156995 0)
(0.10555 0.00184872 0)
(0.106033 0.0020048 0)
(0.106633 0.00237299 0)
(0.107315 0.00251318 0)
(0.108028 0.00291659 0)
(0.108898 0.00311683 0)
(0.109819 0.0034841 0)
(0.110831 0.00369261 0)
(0.111977 0.00408348 0)
(0.0999893 -0.000209946 0)
(0.100324 -0.000609617 0)
(0.10042 -0.000872159 0)
(0.101024 -0.000947595 0)
(0.101561 -0.000979424 0)
(0.101473 -0.0010383 0)
(0.101642 -0.00111453 0)
(0.102283 -0.00118476 0)
(0.102721 -0.00118356 0)
(0.102851 -0.00104289 0)
(0.103032 -0.000782299 0)
(0.103301 -0.000479193 0)
(0.103471 -0.000194775 0)
(0.103549 5.87208e-05 0)
(0.103631 0.000268161 0)
(0.10378 0.000447843 0)
(0.103959 0.000594182 0)
(0.104209 0.000741952 0)
(0.104475 0.00087014 0)
(0.104846 0.00102454 0)
(0.105221 0.00115443 0)
(0.105716 0.00134531 0)
(0.106227 0.00146196 0)
(0.106837 0.00171972 0)
(0.107526 0.00181757 0)
(0.108264 0.00210226 0)
(0.109122 0.00223974 0)
(0.110055 0.00249246 0)
(0.111066 0.00262796 0)
(0.112183 0.00289707 0)
(0.0999854 -0.000647538 0)
(0.100418 -0.00138576 0)
(0.100602 -0.00161987 0)
(0.101159 -0.0015806 0)
(0.101572 -0.00160262 0)
(0.101381 -0.00168273 0)
(0.101436 -0.00175846 0)
(0.101911 -0.00185325 0)
(0.102154 -0.00186976 0)
(0.102097 -0.00166027 0)
(0.102113 -0.00126015 0)
(0.102261 -0.000822527 0)
(0.102368 -0.00044454 0)
(0.102425 -0.000143606 0)
(0.10252 7.73607e-05 0)
(0.102704 0.000239236 0)
(0.10293 0.000353878 0)
(0.103224 0.0004528 0)
(0.103528 0.000536865 0)
(0.103947 0.000626748 0)
(0.104338 0.000711064 0)
(0.104908 0.000815878 0)
(0.105394 0.000895099 0)
(0.106131 0.00103721 0)
(0.106741 0.00110392 0)
(0.107652 0.00126176 0)
(0.108398 0.00135142 0)
(0.109514 0.00148439 0)
(0.110399 0.00156739 0)
(0.111691 0.00170491 0)
(0.0990277 -0.000569955 0)
(0.0985566 -0.00117559 0)
(0.0972834 -0.0013117 0)
(0.0959705 -0.00123653 0)
(0.0945296 -0.0012409 0)
(0.092688 -0.00130591 0)
(0.091118 -0.00137152 0)
(0.0897587 -0.00143147 0)
(0.0880676 -0.00138895 0)
(0.0863063 -0.00115901 0)
(0.0850187 -0.00082431 0)
(0.0842444 -0.000520381 0)
(0.0837634 -0.000295428 0)
(0.0834962 -0.000132233 0)
(0.0834363 -1.51147e-05 0)
(0.0835413 6.33463e-05 0)
(0.0837388 0.000111766 0)
(0.0840138 0.000149299 0)
(0.0843312 0.000177929 0)
(0.0847356 0.000208371 0)
(0.085151 0.000235358 0)
(0.0856997 0.000266927 0)
(0.0862043 0.000295821 0)
(0.086921 0.000333535 0)
(0.0875267 0.000360762 0)
(0.0884211 0.000403061 0)
(0.0891365 0.000432982 0)
(0.0902285 0.000464525 0)
(0.0910353 0.00049491 0)
(0.0923149 0.000512222 0)
(0.0345032 0.00317931 0)
(0.0739445 0.0370773 0)
(0.0450905 0.0165815 0)
(0.0956356 0.0311523 1.1568e-21)
(0.0701095 0.0389873 1.00834e-21)
(0.0795344 0.0365857 0)
(0.0925105 0.0314898 6.34757e-22)
(0.124299 0.0574827 4.45455e-22)
(0.0647756 0.0337134 1.05793e-21)
(0.139786 0.0413668 0)
(0.0775139 0.0246746 0)
(0.0781668 0.0281799 0)
(0.0962642 0.0350606 0)
(0.0931763 0.0355523 0)
(0.094633 0.0545373 0)
(0.108933 0.0412455 2.5697e-22)
(0.116457 0.0305527 1.8268e-22)
(0.124947 0.0796979 3.83333e-24)
(0.124422 0.0621461 -6.387e-22)
(0.138389 0.0297062 -4.35531e-22)
(0.0859603 0.0225377 0)
(0.0879064 0.0256139 0)
(0.0953191 0.0337734 0)
(0.0948751 0.0275982 0)
(0.101573 0.0420304 0)
(0.120946 0.0435706 -2.57005e-22)
(0.109181 0.0207347 -1.82689e-22)
(0.115178 0.052008 -3.83369e-24)
(0.150118 0.0683038 2.97951e-22)
(0.154684 0.0136307 4.35537e-22)
(0.091542 0.0225748 -5.49136e-22)
(0.0923545 0.0262365 0)
(0.0997108 0.0301067 -4.4812e-22)
(0.103382 0.0313561 -4.0045e-22)
(0.104036 0.03714 -3.22681e-22)
(0.119148 0.0394913 0)
(0.11954 0.0340462 0)
(0.116931 0.042826 -2.72139e-24)
(0.147209 0.0452665 1.82112e-22)
(0.149854 0.0214747 3.67445e-22)
(0.094928 0.0222753 5.4914e-22)
(0.0977901 0.0218797 0)
(0.102071 0.0292036 4.48123e-22)
(0.1051 0.0269615 4.00452e-22)
(0.109549 0.0325556 3.22683e-22)
(0.117564 0.0315167 0)
(0.12152 0.0275943 0)
(0.12529 0.0348474 2.7214e-24)
(0.141529 0.0388361 -1.82113e-22)
(0.143399 0.0147505 -3.67461e-22)
(0.0993806 0.0197563 0)
(0.10055 0.0229658 -4.29421e-22)
(0.104756 0.0256241 0)
(0.109168 0.0256197 -3.28335e-22)
(0.112121 0.0295537 0)
(0.119181 0.0302098 0)
(0.123573 0.0289702 0)
(0.12603 0.0289976 -1.15386e-23)
(0.138676 0.0295671 0)
(0.143956 0.0194967 0)
(0.101264 0.0196846 4.26905e-22)
(0.103687 0.0193287 8.26054e-22)
(0.107483 0.02363 3.5401e-22)
(0.110784 0.0231396 3.28336e-22)
(0.114185 0.0255515 0)
(0.119634 0.0245406 -1.69777e-22)
(0.124704 0.0242458 0)
(0.128735 0.0244621 1.15387e-23)
(0.135636 0.0234023 0)
(0.139561 0.0133318 0)
(0.104273 0.0170181 -4.26906e-22)
(0.106136 0.0190795 -3.96633e-22)
(0.109193 0.0208625 -3.54011e-22)
(0.112739 0.0208479 0)
(0.116356 0.0228474 0)
(0.120528 0.0227699 1.69778e-22)
(0.124833 0.0220727 0)
(0.128656 0.0206677 0)
(0.134578 0.0199254 0)
(0.137811 0.0144723 0)
(0.105968 0.0162665 0)
(0.107905 0.0165537 -3.449e-22)
(0.111056 0.0185683 0)
(0.114067 0.0186948 -2.62399e-22)
(0.117164 0.0196701 0)
(0.121099 0.0189155 0)
(0.125262 0.0188086 -8.02334e-23)
(0.128568 0.0171686 -7.63047e-24)
(0.13249 0.0157005 0)
(0.135633 0.010599 1.45817e-22)
(0.107786 0.0141556 0)
(0.109651 0.0152566 3.44901e-22)
(0.112305 0.0163834 0)
(0.115052 0.0164736 2.62399e-22)
(0.118328 0.0171817 0)
(0.121496 0.0168768 0)
(0.124942 0.016285 8.02335e-23)
(0.128116 0.0146519 7.63048e-24)
(0.13148 0.0134327 0)
(0.133831 0.0100356 -1.45818e-22)
(0.109127 0.0128629 1.65247e-22)
(0.110833 0.0133701 0)
(0.113365 0.0142871 0)
(0.115917 0.0144146 1.18416e-22)
(0.118714 0.0147991 0)
(0.121692 0.0141149 0)
(0.124808 0.0137632 0)
(0.127449 0.0121206 1.4355e-23)
(0.130103 0.0107993 0)
(0.132287 0.00776635 0)
(0.110264 0.0111753 -7.62431e-24)
(0.111916 0.0117791 0)
(0.114197 0.0124061 1.31945e-22)
(0.116455 0.012471 -4.4273e-24)
(0.119167 0.0126457 0)
(0.121768 0.0121731 0)
(0.1244 0.0116144 4.53172e-23)
(0.126823 0.0102074 -1.4355e-23)
(0.129121 0.0090425 -6.68054e-24)
(0.130922 0.00674892 -3.28865e-23)
(0.111172 0.00973615 -6.28743e-24)
(0.112718 0.010156 0)
(0.114796 0.0106023 -4.68006e-24)
(0.116924 0.0106216 -3.35997e-24)
(0.119312 0.0107182 9.14798e-23)
(0.121691 0.0101069 -7.01312e-23)
(0.124057 0.00963568 2.44035e-24)
(0.126149 0.00836342 2.44066e-23)
(0.128128 0.00727326 7.36715e-24)
(0.129759 0.00530781 9.89334e-24)
(0.11189 0.00826304 -1.51336e-22)
(0.113371 0.00862019 0)
(0.115278 0.00893102 -1.27265e-22)
(0.117207 0.00893034 -1.10629e-22)
(0.11942 0.00890453 -9.14799e-23)
(0.121569 0.00841242 1.40799e-22)
(0.123653 0.00789982 -4.77577e-23)
(0.125554 0.00683154 -2.44067e-23)
(0.127308 0.00588465 -6.86604e-25)
(0.128761 0.00430937 2.29933e-23)
(0.112452 0.00687598 0)
(0.11387 0.00714371 0)
(0.115613 0.00735482 0)
(0.117419 0.0073182 0)
(0.11942 0.00726811 0)
(0.121385 0.00677507 -7.06676e-23)
(0.123283 0.00631559 0)
(0.124996 0.00540205 0)
(0.126578 0.00457478 0)
(0.127912 0.00327395 0)
(0.112878 0.00553009 0)
(0.114243 0.00572998 0)
(0.115865 0.00586491 0)
(0.117539 0.00582396 0)
(0.119383 0.00572724 0)
(0.121186 0.00531411 -3.63021e-23)
(0.122929 0.00488467 0)
(0.124512 0.00413509 0)
(0.125963 0.00344267 0)
(0.127199 0.00240414 0)
(0.113193 0.00423296 0)
(0.114506 0.00437215 0)
(0.116039 0.00444519 5.84985e-23)
(0.117595 0.00439163 0)
(0.119314 0.00428323 4.48716e-23)
(0.120966 0.00392228 3.63021e-23)
(0.122612 0.0035523 0)
(0.124065 0.00294554 1.95595e-23)
(0.125436 0.00237984 0)
(0.12657 0.0015651 0)
(0.113406 0.00297829 0)
(0.114624 0.00306804 0)
(0.116115 0.00309519 -5.84986e-23)
(0.117503 0.00303402 0)
(0.119156 0.00291842 -4.48717e-23)
(0.120598 0.00263089 0)
(0.122211 0.00231543 0)
(0.123446 0.00184349 -1.95595e-23)
(0.124787 0.00140328 0)
(0.125687 0.00080051 0)
(0.112782 0.00173 -1.6841e-23)
(0.113705 0.00176623 -1.57542e-23)
(0.115052 0.00173884 -1.44803e-23)
(0.116045 0.00167534 0)
(0.117566 0.00154429 -1.13412e-23)
(0.118514 0.00134594 0)
(0.120024 0.00109042 -7.51299e-24)
(0.120666 0.000768457 0)
(0.121903 0.000437354 -3.30778e-24)
(0.12206 4.9023e-05 -1.15323e-24)
(0.0932353 0.000497371 1.68391e-23)
(0.0940387 0.000461051 1.57524e-23)
(0.0950199 0.000394815 1.44785e-23)
(0.0957259 0.000322953 0)
(0.0966636 0.000207492 1.13397e-23)
(0.0970973 0.000106753 0)
(0.0978077 -5.2165e-05 7.51185e-24)
(0.0976742 -0.000205502 0)
(0.0978408 -0.000377917 3.30721e-24)
(0.0969117 -0.000538983 1.15302e-24)
(-0.00909568 -0.00220871 0)
(-0.0241913 0.00568958 0)
(-0.0550137 0.0092226 0)
(-0.0836622 0.00694744 0)
(-0.0879211 0.00115037 0)
(-0.0788821 -0.00415866 0)
(-0.0600646 -0.00590088 0)
(-0.0377737 -0.00700735 0)
(-0.0159113 -0.00607575 0)
(0.00362292 -0.00526073 0)
(0.020198 -0.00408187 0)
(0.0334561 -0.00295951 0)
(0.0436401 -0.00199606 0)
(0.0511479 -0.00124315 0)
(0.0564866 -0.000703488 0)
(0.0601671 -0.00034875 0)
(0.062646 -0.000134493 0)
(0.0642949 -1.57861e-05 0)
(0.0653914 4.28063e-05 0)
(0.0661288 6.65293e-05 0)
(0.0666349 7.17239e-05 0)
(0.0669918 6.80807e-05 0)
(0.0672509 6.09375e-05 0)
(0.0674444 5.29517e-05 0)
(0.0675925 4.53076e-05 0)
(0.0677081 3.84525e-05 0)
(0.0677999 3.25059e-05 0)
(0.0678737 2.74526e-05 0)
(0.067934 2.3097e-05 0)
(0.0679835 1.95106e-05 0)
(0.0680244 1.62179e-05 0)
(0.0680595 1.37691e-05 0)
(0.0680871 1.10443e-05 0)
(0.0681157 9.41178e-06 0)
(0.0681325 7.05567e-06 0)
(0.0681608 5.72514e-06 0)
(0.0681687 3.94941e-06 0)
(0.0682008 2.33248e-06 0)
(0.068202 1.30706e-06 0)
(0.0682393 -1.40701e-06 0)
(-0.00864404 0.0261249 0)
(-0.0388129 0.0276654 0)
(-0.0616157 0.0319511 0)
(-0.0944323 0.0209418 0)
(-0.0948705 -0.00317525 0)
(-0.0859655 -0.0146706 0)
(-0.0590339 -0.0239641 0)
(-0.0362808 -0.0248044 0)
(-0.0104544 -0.0233283 0)
(0.0110733 -0.020646 0)
(0.0296373 -0.0171631 0)
(0.0448037 -0.0136463 0)
(0.0570405 -0.0104544 0)
(0.0667162 -0.00775848 0)
(0.0742254 -0.00560465 0)
(0.0799541 -0.00396486 0)
(0.0842701 -0.00276846 0)
(0.0875031 -0.00192577 0)
(0.0899284 -0.00134763 0)
(0.0917611 -0.000956798 0)
(0.0931616 -0.000693285 0)
(0.0942459 -0.000514099 0)
(0.0950965 -0.000390075 0)
(0.0957724 -0.000302165 0)
(0.0963151 -0.000238248 0)
(0.0967552 -0.000190529 0)
(0.0971147 -0.000154314 0)
(0.097411 -0.000125772 0)
(0.0976553 -0.000104123 0)
(0.0978602 -8.53637e-05 0)
(0.0980279 -7.28653e-05 0)
(0.0981749 -5.91961e-05 0)
(0.0982879 -5.28369e-05 0)
(0.0984004 -4.27727e-05 0)
(0.0984726 -3.9615e-05 0)
(0.098566 -3.31824e-05 0)
(0.0986074 -3.17236e-05 0)
(0.0986924 -2.80988e-05 0)
(0.0987098 -2.78502e-05 0)
(0.0987934 -2.75455e-05 0)
(-0.0205258 0.0338245 0)
(-0.0408587 0.0398807 0)
(-0.0690337 0.0422762 0)
(-0.0895712 0.031257 0)
(-0.0960717 -0.00433004 0)
(-0.0864892 -0.0300092 0)
(-0.0604218 -0.0429628 0)
(-0.0348772 -0.0431561 0)
(-0.007536 -0.0403178 0)
(0.0154193 -0.0346358 0)
(0.0342066 -0.0285556 0)
(0.0486886 -0.0228099 0)
(0.0599343 -0.0177901 0)
(0.0687933 -0.0135845 0)
(0.0758258 -0.0101831 0)
(0.0813834 -0.00752859 0)
(0.0857355 -0.00552649 0)
(0.0891216 -0.0040584 0)
(0.0917535 -0.00300157 0)
(0.0938069 -0.00224685 0)
(0.0954196 -0.00170708 0)
(0.0966967 -0.00131752 0)
(0.0977168 -0.0010323 0)
(0.0985386 -0.000819807 0)
(0.0992053 -0.00065872 0)
(0.0997503 -0.000534287 0)
(0.100198 -0.000437272 0)
(0.100569 -0.000359385 0)
(0.100874 -0.000298826 0)
(0.101133 -0.000246661 0)
(0.101343 -0.000209522 0)
(0.101529 -0.000172004 0)
(0.101671 -0.000150362 0)
(0.101812 -0.000123205 0)
(0.101903 -0.000110294 0)
(0.102018 -9.18313e-05 0)
(0.102072 -8.47526e-05 0)
(0.102174 -7.20493e-05 0)
(0.102197 -6.95633e-05 0)
(0.102295 -6.24396e-05 0)
(0.0095661 0.0648415 0)
(0.00107682 0.0678412 0)
(-0.0369345 0.0667165 0)
(-0.0624268 0.0451632 0)
(-0.0666228 -0.00225833 0)
(-0.0666096 -0.0429596 0)
(-0.0509779 -0.0649308 0)
(-0.0273181 -0.0654408 0)
(-0.00321212 -0.0605299 0)
(0.0199678 -0.0512563 0)
(0.0399204 -0.0410615 0)
(0.0550757 -0.0319147 0)
(0.0658682 -0.0245916 0)
(0.0735757 -0.0188773 0)
(0.0793435 -0.0143924 0)
(0.0838493 -0.0108791 0)
(0.0874372 -0.00817503 0)
(0.0903043 -0.00614169 0)
(0.0925954 -0.00464034 0)
(0.0944287 -0.00354145 0)
(0.0959011 -0.00273661 0)
(0.09709 -0.00214236 0)
(0.0980554 -0.00169803 0)
(0.0988439 -0.00136079 0)
(0.0994908 -0.0011011 0)
(0.100024 -0.000897871 0)
(0.100466 -0.000737796 0)
(0.100833 -0.000608291 0)
(0.101138 -0.00050676 0)
(0.101397 -0.000419322 0)
(0.101607 -0.000355796 0)
(0.101794 -0.000293138 0)
(0.101936 -0.00025473 0)
(0.102079 -0.000209575 0)
(0.102171 -0.000185911 0)
(0.102286 -0.000154455 0)
(0.102341 -0.000141352 0)
(0.102442 -0.000118563 0)
(0.102467 -0.000113621 0)
(0.102564 -9.88063e-05 0)
(0.00912651 0.0307842 0)
(-0.00217553 0.065695 0)
(-0.0214323 0.0768042 0)
(-0.00701274 0.0495329 0)
(-0.00809777 0.00294489 0)
(-0.00905664 -0.041747 0)
(-0.00647483 -0.0740277 0)
(0.00417699 -0.0787167 0)
(0.0170463 -0.0748046 0)
(0.0310955 -0.0661475 0)
(0.0458144 -0.0539819 0)
(0.0592502 -0.0414437 0)
(0.0700167 -0.0310182 0)
(0.0777542 -0.0232136 0)
(0.083062 -0.0175287 0)
(0.0868081 -0.0133266 0)
(0.0896297 -0.0101641 0)
(0.0918741 -0.00777425 0)
(0.0937103 -0.00597697 0)
(0.0952269 -0.00463234 0)
(0.0964821 -0.00362658 0)
(0.0975212 -0.00286992 0)
(0.098382 -0.00229489 0)
(0.0990961 -0.00185234 0)
(0.0996893 -0.00150751 0)
(0.100183 -0.00123493 0)
(0.100595 -0.00101844 0)
(0.10094 -0.000842149 0)
(0.101227 -0.000703019 0)
(0.101472 -0.000582983 0)
(0.101671 -0.000494815 0)
(0.101849 -0.00040859 0)
(0.101985 -0.00035439 0)
(0.102121 -0.000292127 0)
(0.102209 -0.000258344 0)
(0.102319 -0.000214429 0)
(0.102371 -0.000195634 0)
(0.102468 -0.000163129 0)
(0.102491 -0.000155876 0)
(0.102584 -0.000133593 0)
(0.011107 0.0558325 0)
(0.00941482 0.101251 0)
(0.0356797 0.0752846 0)
(0.067444 0.0447906 0)
(0.0713806 0.0017448 0)
(0.0687647 -0.0404544 0)
(0.0643885 -0.0731235 0)
(0.0595441 -0.0816163 0)
(0.0610514 -0.0778356 0)
(0.0643045 -0.0703137 0)
(0.0674258 -0.0600373 0)
(0.0706797 -0.048389 0)
(0.0753837 -0.037264 0)
(0.0808815 -0.0278665 0)
(0.0856979 -0.020648 0)
(0.0892404 -0.0154066 0)
(0.0917191 -0.011663 0)
(0.0935362 -0.00896035 0)
(0.0949735 -0.00697028 0)
(0.0961702 -0.00548042 0)
(0.0971866 -0.004351 0)
(0.0980526 -0.00348544 0)
(0.0987883 -0.0028151 0)
(0.0994111 -0.00229034 0)
(0.0999368 -0.00187553 0)
(0.10038 -0.00154377 0)
(0.100753 -0.0012778 0)
(0.101068 -0.00105966 0)
(0.101332 -0.000886399 0)
(0.101557 -0.000736478 0)
(0.101742 -0.000625504 0)
(0.101907 -0.000517383 0)
(0.102033 -0.000448429 0)
(0.102159 -0.000370108 0)
(0.102242 -0.000326862 0)
(0.102344 -0.000271164 0)
(0.102393 -0.000246999 0)
(0.102484 -0.000205296 0)
(0.102506 -0.000195819 0)
(0.102592 -0.000166433 0)
(-0.0550557 0.0220102 0)
(0.0346482 0.0430128 0)
(0.0591917 0.030655 0)
(0.114158 0.024999 0)
(0.126549 0.00598835 0)
(0.129461 -0.0307093 0)
(0.126442 -0.0649527 0)
(0.114293 -0.0788959 0)
(0.103299 -0.0796411 0)
(0.100079 -0.0720653 0)
(0.10063 -0.0582831 0)
(0.0971706 -0.0460233 0)
(0.0915995 -0.0374767 0)
(0.0889583 -0.0302185 0)
(0.0895866 -0.0234062 0)
(0.0915384 -0.0176547 0)
(0.0934565 -0.0133071 0)
(0.0949686 -0.010181 0)
(0.0961418 -0.00792599 0)
(0.0970994 -0.00626021 0)
(0.0979159 -0.00500062 0)
(0.0986243 -0.00403126 0)
(0.0992387 -0.00327511 0)
(0.0997688 -0.00267833 0)
(0.100223 -0.0022029 0)
(0.100611 -0.00181996 0)
(0.100941 -0.00151104 0)
(0.101221 -0.0012563 0)
(0.101457 -0.00105295 0)
(0.10166 -0.000876451 0)
(0.101827 -0.000745082 0)
(0.101977 -0.000617204 0)
(0.102091 -0.00053492 0)
(0.102206 -0.000441949 0)
(0.102281 -0.000390095 0)
(0.102375 -0.000323566 0)
(0.10242 -0.000294476 0)
(0.102503 -0.000244279 0)
(0.102523 -0.000232755 0)
(0.102602 -0.000196768 0)
(0.123675 0.0598503 0)
(0.119353 0.0316723 0)
(0.118723 0.00195168 0)
(0.148947 -0.00630204 0)
(0.162262 -0.00623477 0)
(0.164205 -0.037537 0)
(0.156741 -0.0652719 0)
(0.152819 -0.0654869 0)
(0.140842 -0.0643876 0)
(0.121236 -0.0687863 0)
(0.113974 -0.0605087 0)
(0.115258 -0.043277 0)
(0.111894 -0.0312608 0)
(0.104776 -0.0258581 0)
(0.0992723 -0.0220217 0)
(0.0968457 -0.0178026 0)
(0.0964379 -0.0138081 0)
(0.0968788 -0.0106371 0)
(0.0975374 -0.00831262 0)
(0.0981834 -0.00662746 0)
(0.0987689 -0.00536954 0)
(0.0992952 -0.00439452 0)
(0.0997675 -0.00361794 0)
(0.100188 -0.00298996 0)
(0.100559 -0.00247875 0)
(0.100882 -0.00205989 0)
(0.101161 -0.00171768 0)
(0.101401 -0.00143276 0)
(0.101605 -0.00120376 0)
(0.101782 -0.00100398 0)
(0.101928 -0.000854551 0)
(0.10206 -0.000708907 0)
(0.102161 -0.000614604 0)
(0.102263 -0.000508274 0)
(0.102329 -0.000448568 0)
(0.102412 -0.000372087 0)
(0.102452 -0.000338465 0)
(0.102526 -0.000280422 0)
(0.102544 -0.000267007 0)
(0.102614 -0.000224873 0)
(0.164372 0.0560018 0)
(0.169281 0.0461665 0)
(0.170689 0.00388848 0)
(0.161823 -0.00938113 0)
(0.170942 -0.000316345 0)
(0.186559 -0.0210868 0)
(0.160828 -0.0579689 0)
(0.139224 -0.0715357 0)
(0.141904 -0.0585266 0)
(0.12861 -0.0522061 0)
(0.106465 -0.0528329 0)
(0.100236 -0.0443502 0)
(0.10419 -0.0311856 0)
(0.107239 -0.0222175 0)
(0.106336 -0.0181102 0)
(0.103438 -0.0158238 0)
(0.100887 -0.0135777 0)
(0.0994996 -0.0112428 0)