/*--------------------------------*- C++ -*----------------------------------*\
| =========                 |                                                 |
| \\      /  F ield         | OpenFOAM: The Open Source CFD Toolbox           |
|  \\    /   O peration     | Version:  2112                                  |
|   \\  /    A nd           | Website:  www.openfoam.com                      |
|    \\/     M anipulation  |                                                 |
\*---------------------------------------------------------------------------*/
FoamFile
{
    version     2.0;
    format      ascii;
    arch        "LSB;label=32;scalar=64";
    class       volScalarField;
    location    "0.13";
    object      nut;
}
// * * * * * * * * * * * * * * * * * * * * * * * * * * * * * * * * * * * * * //

dimensions      [0 2 -1 0 0 0 0];

internalField   nonuniform List<scalar> 
1880
(
3.4029e-11
5.33843e-12
1.36445e-13
3.70973e-17
6.6052e-14
2.85202e-13
1.9917e-14
1.47811e-13
6.60921e-15
2.07633e-13
6.49213e-13
7.06063e-13
3.69112e-13
1.32247e-13
3.38523e-14
6.61441e-15
1.41129e-14
8.64203e-14
1.86244e-13
6.43761e-13
1.12198e-12
2.27771e-12
2.6693e-12
4.90013e-12
5.88282e-12
8.84486e-12
1.16648e-10
1.71384e-11
6.07798e-09
6.02082e-10
4.93716e-09
6.06421e-09
7.67816e-10
9.08982e-10
3.59579e-11
8.73229e-11
4.78252e-12
1.19274e-10
7.97398e-12
6.13842e-12
7.76487e-11
1.40813e-10
9.99596e-11
2.90694e-11
1.32168e-11
2.76616e-13
2.89631e-12
2.80621e-11
1.42527e-11
1.4577e-10
8.29642e-11
2.87966e-10
4.03536e-10
5.84898e-10
1.23022e-09
3.68599e-09
4.72986e-09
2.13321e-08
2.25905e-08
6.67414e-08
9.45518e-10
2.38744e-09
1.67795e-09
4.68577e-09
1.03601e-09
6.57028e-09
2.1283e-09
5.88302e-09
2.59391e-09
6.6825e-09
4.86611e-09
1.37128e-08
1.52889e-09
1.59392e-10
1.17229e-10
1.04126e-09
6.741e-10
3.53795e-09
1.31282e-09
6.68358e-09
2.82022e-09
8.85189e-09
9.22251e-09
9.90447e-09
2.09317e-08
1.5613e-08
3.04942e-08
3.34804e-08
3.31805e-08
6.22786e-08
4.96641e-11
1.19377e-11
3.5136e-09
6.57283e-09
2.43932e-09
6.32029e-09
1.85013e-11
6.01699e-09
2.17764e-10
2.62337e-09
5.07448e-12
2.29475e-09
2.28757e-09
2.11361e-09
2.38719e-09
2.96962e-09
3.32622e-09
4.67389e-09
4.08036e-09
6.58135e-09
5.04931e-09
8.76573e-09
7.86798e-09
1.30847e-08
1.39631e-08
2.06936e-08
2.23963e-08
3.04422e-08
3.14861e-08
3.85442e-08
8.4942e-12
7.57822e-10
4.47098e-09
3.94349e-09
1.36173e-09
4.23938e-09
1.02494e-09
4.58331e-09
7.34882e-11
5.38262e-09
7.34034e-10
2.69166e-10
1.3537e-10
1.91654e-09
1.29652e-09
2.47508e-09
2.38505e-09
3.94748e-09
3.52945e-09
5.55754e-09
6.01491e-09
9.0819e-09
1.26512e-08
1.60701e-08
2.0566e-08
2.14853e-08
2.4716e-08
2.6213e-08
2.45306e-08
3.56006e-08
1.10259e-10
3.52667e-11
3.013e-09
6.25195e-09
3.09118e-09
7.5375e-10
7.55937e-11
7.39705e-09
3.13055e-10
5.90622e-09
9.24335e-10
2.11685e-09
2.60595e-09
5.8556e-10
8.00998e-10
1.91678e-09
2.52495e-09
3.51995e-09
3.50873e-09
5.13858e-09
5.39785e-09
8.03993e-09
9.37554e-09
1.17549e-08
1.32251e-08
1.48748e-08
1.73181e-08
2.01001e-08
2.35129e-08
2.74521e-08
1.11644e-10
2.54297e-10
3.82832e-09
5.10486e-09
2.19534e-09
1.76875e-09
1.12114e-09
6.23244e-09
5.04645e-10
4.43148e-09
4.49738e-10
1.12289e-09
7.40441e-10
1.46272e-09
8.97488e-10
1.86348e-09
2.44329e-09
3.17669e-09
3.58205e-09
4.66955e-09
6.08508e-09
8.2691e-09
1.12813e-08
1.28379e-08
1.51979e-08
1.48383e-08
1.63203e-08
1.96908e-08
1.81314e-08
2.74772e-08
2.06277e-10
2.32517e-10
3.43797e-09
6.10873e-09
3.01795e-09
1.91824e-09
8.68098e-10
7.52484e-09
9.74963e-10
4.32425e-09
5.10327e-10
2.11585e-09
1.67389e-09
1.29549e-09
1.32462e-09
1.84513e-09
2.71128e-09
3.01874e-09
3.70135e-09
4.39227e-09
5.65819e-09
7.18327e-09
9.02823e-09
9.99137e-09
1.12829e-08
1.2197e-08
1.42953e-08
1.64862e-08
1.91997e-08
2.07101e-08
3.28731e-10
3.7474e-10
3.15303e-09
6.19488e-09
3.02065e-09
2.98826e-09
1.37425e-09
7.29067e-09
1.35713e-09
5.19642e-09
1.20734e-09
2.41634e-09
2.03981e-09
1.75009e-09
1.77019e-09
2.05458e-09
2.91324e-09
2.9756e-09
3.85321e-09
4.1902e-09
5.70586e-09
6.83786e-09
8.82006e-09
9.54445e-09
1.05659e-08
1.1627e-08
1.27211e-08
1.63175e-08
1.5739e-08
2.09819e-08
5.40057e-10
6.01572e-10
2.65443e-09
6.41008e-09
3.23914e-09
3.93724e-09
1.54832e-09
7.4766e-09
1.71365e-09
5.45428e-09
1.67058e-09
2.84142e-09
2.44924e-09
2.07472e-09
2.15652e-09
2.29965e-09
3.13347e-09
3.05478e-09
3.96908e-09
4.13076e-09
5.47225e-09
6.28672e-09
7.75737e-09
8.61046e-09
9.37978e-09
1.08591e-08
1.2271e-08
1.38867e-08
1.61798e-08
1.7121e-08
8.78549e-10
8.93908e-10
2.14943e-09
6.6157e-09
3.50133e-09
4.70956e-09
1.59662e-09
7.6957e-09
1.99923e-09
5.39548e-09
2.01011e-09
3.26488e-09
2.82438e-09
2.36361e-09
2.49125e-09
2.55719e-09
3.32134e-09
3.17278e-09
4.05994e-09
4.12977e-09
5.34846e-09
5.98306e-09
7.18457e-09
8.12441e-09
8.64666e-09
1.04483e-08
1.14237e-08
1.35181e-08
1.41232e-08
1.66851e-08
1.12746e-09
1.07247e-09
2.18328e-09
6.47771e-09
3.43333e-09
5.92921e-09
1.8626e-09
7.22158e-09
2.13701e-09
5.92837e-09
2.50743e-09
3.40586e-09
3.03472e-09
2.71625e-09
2.77281e-09
2.81309e-09
3.43871e-09
3.31214e-09
4.09639e-09
4.16604e-09
5.19358e-09
5.74936e-09
6.67262e-09
7.72227e-09
8.1912e-09
9.80732e-09
1.08998e-08
1.20313e-08
1.37311e-08
1.48377e-08
9.173e-10
7.74987e-10
2.83271e-09
6.73727e-09
3.76597e-09
6.40822e-09
1.67557e-09
7.55519e-09
2.26122e-09
5.29369e-09
2.57713e-09
3.93406e-09
3.45158e-09
2.85718e-09
2.98916e-09
2.99944e-09
3.56331e-09
3.41509e-09
4.10246e-09
4.19952e-09
5.05411e-09
5.59111e-09
6.30153e-09
7.40668e-09
7.80553e-09
9.39267e-09
1.03081e-08
1.15104e-08
1.25628e-08
1.41265e-08
4.13845e-10
7.69201e-10
4.09114e-09
5.79435e-09
3.26605e-09
7.8504e-09
2.03036e-09
6.6174e-09
2.26028e-09
5.62634e-09
3.01238e-09
3.88912e-09
3.47013e-09
3.23544e-09
3.17226e-09
3.14827e-09
3.51784e-09
3.47212e-09
4.02408e-09
4.19174e-09
4.90392e-09
5.45315e-09
6.0329e-09
7.1275e-09
7.53634e-09
8.89711e-09
9.83595e-09
1.07542e-08
1.19321e-08
1.31508e-08
2.64288e-10
1.53525e-10
3.27599e-09
6.97487e-09
4.12473e-09
7.01251e-09
1.33344e-09
7.49966e-09
2.23072e-09
4.11778e-09
2.80188e-09
4.25535e-09
3.78403e-09
3.22366e-09
3.25572e-09
3.23277e-09
3.57997e-09
3.46229e-09
3.94619e-09
4.1504e-09
4.75715e-09
5.32788e-09
5.8244e-09
6.88086e-09
7.3026e-09
8.52138e-09
9.38964e-09
1.02976e-08
1.12524e-08
1.24887e-08
3.8267e-11
1.14759e-09
4.94695e-09
4.89957e-09
2.8184e-09
9.02543e-09
2.1752e-09
5.4761e-09
2.05994e-09
5.30822e-09
3.34965e-09
4.0863e-09
3.77222e-09
3.4436e-09
3.26151e-09
3.11657e-09
3.25859e-09
3.32304e-09
3.71137e-09
4.02829e-09
4.56862e-09
5.17953e-09
5.64813e-09
6.64837e-09
7.11023e-09
8.1742e-09
9.01969e-09
9.86827e-09
1.07576e-08
1.18731e-08
6.73838e-11
1.09789e-12
5.27398e-10
7.12873e-09
3.32908e-09
5.16207e-09
6.5238e-10
6.52503e-09
1.7102e-09
2.53245e-09
2.77754e-09
4.76353e-09
3.98134e-09
3.26524e-09
3.05814e-09
2.95287e-09
3.12726e-09
3.09519e-09
3.4948e-09
3.8595e-09
4.36457e-09
5.02405e-09
5.47567e-09
6.42842e-09
6.93257e-09
7.89633e-09
8.68853e-09
9.54988e-09
1.03371e-08
1.1399e-08
1.1449e-09
2.80152e-09
2.26539e-09
5.48191e-09
2.35937e-09
1.10666e-08
3.08822e-09
6.32739e-09
3.64859e-09
6.16689e-09
6.25157e-10
2.11496e-10
1.33031e-08
2.59548e-08
1.97018e-08
5.64212e-09
6.27974e-10
9.74811e-12
2.3838e-11
4.09912e-10
7.19145e-10
2.04249e-09
2.19542e-09
4.00671e-09
4.36703e-09
6.00684e-09
6.53314e-09
8.2316e-09
8.63966e-09
1.02691e-08
5.00776e-09
5.879e-09
6.46184e-10
8.57786e-10
2.30939e-11
7.73567e-11
9.53383e-13
9.84577e-11
1.90049e-12
2.69468e-11
1.95991e-10
3.25608e-10
2.35471e-10
1.25061e-10
5.36758e-11
1.89762e-11
7.07414e-12
3.03935e-12
1.94939e-12
1.25738e-12
1.63125e-12
8.52376e-13
1.58172e-12
9.3706e-13
6.90348e-13
5.87817e-13
2.51781e-13
2.23744e-15
1.53036e-14
3.24465e-13
3.33437e-11
5.18567e-12
1.21251e-13
2.43063e-18
5.75026e-14
2.63452e-13
9.2938e-15
1.14035e-13
1.93229e-15
2.75116e-13
8.55227e-13
9.48799e-13
5.15579e-13
2.41796e-13
9.49833e-14
2.81908e-14
7.67799e-15
2.641e-15
1.3489e-15
1.08369e-15
1.02968e-15
1.17295e-15
1.42766e-15
1.70083e-15
1.12953e-15
1.84423e-15
5.33285e-16
8.09672e-16
1.937e-16
6.40048e-17
2.3869e-08
7.57526e-09
6.72863e-09
9.16879e-11
7.62982e-09
2.43714e-10
7.06973e-11
3.80616e-09
1.66752e-09
4.20074e-09
4.13304e-08
7.5765e-08
1.09952e-08
5.73904e-08
8.45905e-08
1.48886e-06
1.29166e-08
3.81057e-08
2.84588e-08
1.42257e-06
8.20896e-08
6.09574e-08
4.35592e-08
2.66794e-08
6.51039e-08
9.28822e-08
8.95593e-08
2.22145e-08
1.51561e-07
2.85279e-07
4.83072e-08
4.44438e-08
5.81523e-08
2.46587e-08
5.20537e-08
8.4907e-08
3.02138e-08
5.66811e-08
1.37226e-07
7.77663e-08
4.99836e-08
3.69589e-08
3.79861e-08
3.39195e-08
4.80729e-08
5.56836e-08
3.21705e-08
6.00105e-08
8.14673e-08
6.98984e-08
3.83191e-08
3.19453e-08
3.55511e-08
3.12047e-08
3.66775e-08
5.38258e-08
3.27152e-08
2.22213e-08
7.24194e-08
6.36278e-08
3.35778e-08
2.74335e-08
3.32638e-08
2.87662e-08
3.29129e-08
3.9509e-08
3.67877e-08
3.45762e-08
4.83174e-08
4.80755e-08
3.29847e-08
2.66553e-08
2.75915e-08
2.91509e-08
3.04907e-08
3.55262e-08
3.20676e-08
3.02935e-08
4.16201e-08
3.93922e-08
2.52954e-08
2.22111e-08
2.68114e-08
2.59945e-08
2.61861e-08
3.06965e-08
3.0743e-08
2.66257e-08
3.18061e-08
3.20358e-08
2.54498e-08
2.13947e-08
2.28686e-08
2.4227e-08
2.53975e-08
2.68664e-08
2.59749e-08
2.57289e-08
2.70184e-08
2.58838e-08
1.99301e-08
1.87531e-08
2.15274e-08
2.23129e-08
2.24782e-08
2.38386e-08
2.36863e-08
2.18435e-08
2.29101e-08
2.20869e-08
1.87652e-08
1.76341e-08
1.93793e-08
2.03098e-08
2.13944e-08
2.13912e-08
2.05243e-08
2.00879e-08
1.96e-08
1.83269e-08
1.60802e-08
1.61062e-08
1.78812e-08
1.87713e-08
1.93009e-08
1.92525e-08
1.85593e-08
1.75483e-08
1.72161e-08
1.59456e-08
1.4772e-08
1.50724e-08
1.6451e-08
1.72127e-08
1.78375e-08
1.75023e-08
1.65689e-08
1.57838e-08
1.50396e-08
1.36819e-08
1.34852e-08
1.40849e-08
1.52251e-08
1.59163e-08
1.63141e-08
1.59556e-08
1.50939e-08
1.41574e-08
1.33852e-08
1.20285e-08
1.26539e-08
1.33098e-08
1.42165e-08
1.47543e-08
1.50344e-08
1.46848e-08
1.38262e-08
1.28927e-08
1.1959e-08
1.06409e-08
1.20157e-08
1.26582e-08
1.3369e-08
1.3792e-08
1.39575e-08
1.3689e-08
1.28884e-08
1.1957e-08
1.09895e-08
9.69186e-09
1.07174e-08
1.06866e-08
1.13593e-08
1.08418e-08
1.11478e-08
9.8773e-09
9.37533e-09
7.06447e-09
6.12811e-09
3.89589e-09
9.93576e-13
4.15322e-12
9.57981e-12
2.28026e-11
3.42652e-11
5.27586e-11
5.5311e-11
5.6754e-11
4.63188e-11
4.10629e-11
6.67807e-16
2.74481e-15
6.67298e-15
1.37627e-14
2.03354e-14
3.19227e-14
4.47003e-14
5.58351e-14
5.16546e-14
3.86718e-14
6.58348e-08
1.48692e-08
1.15557e-08
2.55568e-09
1.38497e-09
1.01117e-09
2.2841e-09
6.15519e-09
3.00758e-08
1.15859e-07
6.87934e-08
8.77627e-09
1.03686e-09
1.49343e-10
2.43313e-11
3.9741e-12
5.82414e-13
6.87213e-14
5.367e-15
1.35218e-16
1.02671e-18
4.20997e-17
7.43943e-17
6.90548e-17
4.97686e-17
3.16614e-17
1.91736e-17
1.10702e-17
6.66684e-18
3.82989e-18
2.42759e-18
1.455e-18
9.45685e-19
6.37181e-19
4.50761e-19
3.44541e-19
3.08702e-19
2.3492e-19
3.1219e-19
2.06857e-19
4.59182e-09
8.97248e-08
1.98045e-07
1.30765e-07
5.4637e-08
8.02962e-08
1.33864e-07
1.55557e-07
1.64803e-07
1.499e-07
1.30201e-07
1.05344e-07
8.00061e-08
5.51905e-08
3.24806e-08
1.51381e-08
5.43308e-09
1.57362e-09
3.99314e-10
9.52766e-11
2.24876e-11
5.44708e-12
1.39412e-12
3.84957e-13
1.16669e-13
3.84624e-14
1.42423e-14
5.36913e-15
2.42483e-15
9.37768e-16
4.84503e-16
1.95756e-16
8.49422e-17
4.31175e-17
1.27891e-17
5.76075e-18
1.20606e-18
4.05186e-19
8.64521e-19
5.23781e-19
1.83159e-07
1.95347e-07
9.27486e-08
9.29618e-09
1.56446e-06
1.3452e-07
6.52494e-08
1.38911e-07
1.67076e-07
1.6171e-07
1.39665e-07
1.12875e-07
8.84268e-08
6.87494e-08
5.36025e-08
4.18321e-08
3.2567e-08
2.51931e-08
1.91359e-08
1.39133e-08
9.33842e-09
5.58515e-09
2.92675e-09
1.35958e-09
5.81726e-10
2.37565e-10
9.76729e-11
3.95715e-11
1.74657e-11
7.20693e-12
3.47905e-12
1.51328e-12
7.21855e-13
3.46372e-13
1.58927e-13
7.02156e-14
3.05344e-14
1.27865e-14
2.66779e-15
1.08474e-15
1.91513e-07
1.24342e-08
3.81456e-08
1.61914e-06
3.29387e-06
2.76948e-06
2.1269e-07
9.41748e-09
6.9574e-08
1.30614e-07
1.43931e-07
1.22782e-07
9.40638e-08
7.03403e-08
5.28332e-08
4.02497e-08
3.10438e-08
2.40353e-08
1.86143e-08
1.44575e-08
1.13072e-08
8.92713e-09
7.11757e-09
5.72163e-09
4.62775e-09
3.74758e-09
3.03704e-09
2.42956e-09
1.94326e-09
1.49098e-09
1.15414e-09
8.26497e-10
5.98688e-10
3.93757e-10
2.6692e-10
1.51714e-10
1.0008e-10
4.99396e-11
2.96186e-11
1.29571e-11
1.96333e-07
1.71604e-07
4.83492e-09
2.76161e-06
3.52791e-06
2.79083e-06
9.7522e-07
1.12121e-08
2.4051e-09
2.68247e-08
7.5814e-08
1.05731e-07
9.74796e-08
7.25623e-08
5.19969e-08
3.8517e-08
2.91684e-08
2.23502e-08
1.73001e-08
1.35097e-08
1.06389e-08
8.45239e-09
6.77609e-09
5.47731e-09
4.46239e-09
3.65599e-09
3.01771e-09
2.49237e-09
2.08263e-09
1.7236e-09
1.45965e-09
1.20717e-09
1.03467e-09
8.56007e-10
7.46266e-10
6.11802e-10
5.4989e-10
4.48237e-10
4.14152e-10
3.40852e-10
2.79282e-06
6.84116e-08
3.95645e-07
2.37559e-06
3.44981e-06
2.57899e-06
1.07485e-06
3.99212e-08
2.37299e-10
1.42084e-08
4.418e-08
6.07925e-08
6.49953e-08
6.48332e-08
5.50132e-08
3.97675e-08
2.8519e-08
2.13712e-08
1.64247e-08
1.28023e-08
1.0109e-08
8.07915e-09
6.52296e-09
5.30814e-09
4.349e-09
3.57829e-09
2.96297e-09
2.45158e-09
2.05053e-09
1.69722e-09
1.4356e-09
1.18603e-09
1.01409e-09
8.36157e-10
7.27691e-10
5.93265e-10
5.33672e-10
4.30139e-10
4.03002e-10
3.24782e-10
2.93641e-07
2.80742e-07
1.88917e-08
1.70018e-09
6.20719e-07
2.35081e-06
2.04908e-06
2.62353e-07
1.67307e-10
1.83544e-08
7.63901e-08
1.00846e-07
7.52601e-08
4.52692e-08
3.64884e-08
3.64592e-08
3.10049e-08
2.27788e-08
1.662e-08
1.25896e-08
9.82062e-09
7.81479e-09
6.31289e-09
5.15464e-09
4.24218e-09
3.50461e-09
2.91228e-09
2.41528e-09
2.02437e-09
1.67712e-09
1.41881e-09
1.17264e-09
1.00002e-09
8.23836e-10
7.13806e-10
5.79171e-10
5.17355e-10
4.13145e-10
3.83326e-10
3.03583e-10
9.23868e-09
8.25184e-08
1.2517e-06
3.82554e-07
1.81933e-09
1.54133e-06
1.00322e-06
1.77652e-09
4.41852e-08
7.84228e-08
8.81696e-08
4.89295e-07
7.00884e-07
3.97025e-10
4.23216e-08
2.84923e-08
2.49037e-08
2.23125e-08
1.76749e-08
1.32216e-08
9.97817e-09
7.77484e-09
6.25004e-09
5.13306e-09
4.26652e-09
3.55865e-09
2.98072e-09
2.48543e-09
2.09182e-09
1.73672e-09
1.47059e-09
1.21657e-09
1.03475e-09
8.52028e-10
7.34583e-10
5.93061e-10
5.2532e-10
4.15247e-10
3.79962e-10
2.94647e-10
2.63087e-08
2.95532e-08
2.837e-06
2.25534e-06
7.506e-07
4.1289e-08
2.53129e-09
5.26694e-08
7.15551e-08
1.59269e-07
6.68229e-08
2.69883e-08
8.29231e-07
5.51348e-07
3.09922e-07
2.79973e-07
1.02773e-09
1.59924e-08
1.5036e-08
1.28064e-08
1.04453e-08
8.3237e-09
6.61196e-09
5.30379e-09
4.31885e-09
3.55526e-09
2.95843e-09
2.45892e-09
2.06794e-09
1.71601e-09
1.45236e-09
1.20179e-09
1.01904e-09
8.38546e-10
7.19144e-10
5.77435e-10
5.0671e-10
3.95859e-10
3.56044e-10
2.68539e-10
1.10836e-07
7.96222e-08
8.36734e-09
3.12555e-08
1.70626e-08
6.895e-08
4.427e-11
9.45272e-08
9.91104e-08
4.5244e-08
4.01809e-08
6.33908e-08
1.58381e-08
4.42633e-08
1.28848e-08
7.81241e-10
4.19287e-09
3.54196e-08
6.14072e-08
7.10854e-10
4.39037e-09
5.30645e-09
4.97459e-09
4.42434e-09
3.85982e-09
3.31817e-09
2.83349e-09
2.38888e-09
2.02609e-09
1.68827e-09
1.43165e-09
1.18633e-09
1.0036e-09
8.25585e-10
7.04481e-10
5.62655e-10
4.89039e-10
3.77312e-10
3.32743e-10
2.42136e-10
6.45792e-08
7.08956e-08
1.26287e-07
4.76946e-08
4.78927e-09
9.21648e-08
3.07219e-08
5.65167e-08
1.2274e-07
1.08931e-07
4.57531e-08
1.0075e-08
2.20228e-09
3.36369e-09
5.96376e-09
1.74437e-08
3.1378e-08
3.16976e-08
2.37699e-08
1.65076e-08
1.17058e-08
8.57704e-09
6.48238e-09
5.07093e-09
4.10119e-09
3.38663e-09
2.83791e-09
2.37311e-09
2.007e-09
1.67028e-09
1.41554e-09
1.17323e-09
9.90085e-10
8.14106e-10
6.91544e-10
5.49659e-10
4.73467e-10
3.60868e-10
3.11682e-10
2.16735e-10
9.42481e-08
6.42529e-08
8.77385e-08
7.93388e-08
8.19259e-08
6.77034e-08
3.86501e-08
5.57674e-11
3.39691e-08
1.40775e-08
3.17238e-08
2.59776e-08
2.09619e-07
6.69647e-07
2.72457e-08
1.98464e-08
3.62467e-08
2.99611e-08
2.11636e-08
1.49683e-08
1.08455e-08
7.97478e-09
6.028e-09
4.75733e-09
3.90581e-09
3.27116e-09
2.76911e-09
2.32944e-09
1.97783e-09
1.64933e-09
1.39932e-09
1.16089e-09
9.78226e-10
8.04302e-10
6.80876e-10
5.39147e-10
4.6098e-10
3.47683e-10
2.9455e-10
1.93764e-10
6.68734e-08
4.63753e-08
7.65442e-08
6.59539e-08
4.59618e-08
4.42017e-08
6.21513e-08
6.37725e-08
2.82377e-07
5.14598e-08
7.21891e-08
9.57161e-08
7.6287e-08
4.05106e-07
5.29888e-07
8.20098e-08
5.3684e-09
9.57684e-09
1.54465e-08
1.48181e-08
1.08886e-08
7.71002e-09
5.74557e-09
4.55153e-09
3.77384e-09
3.18896e-09
2.71667e-09
2.29422e-09
1.95328e-09
1.63144e-09
1.38559e-09
1.1505e-09
9.68854e-10
7.96752e-10
6.7312e-10
5.31795e-10
4.52475e-10
3.38842e-10
2.83037e-10
1.76017e-10
5.55732e-08
4.75647e-08
4.64072e-08
5.58163e-08
4.66041e-08
3.28387e-08
2.87466e-08
1.8298e-08
1.4677e-08
2.4463e-08
4.25962e-07
2.73417e-08
3.39713e-08
3.94997e-09
9.9707e-09
3.19815e-08
3.88851e-08
3.2432e-08
2.40213e-08
1.74095e-08
1.25565e-08
9.01233e-09
6.55129e-09
4.95653e-09
3.94316e-09
3.24423e-09
2.72462e-09
2.28549e-09
1.94077e-09
1.6196e-09
1.37565e-09
1.14272e-09
9.62393e-10
7.91785e-10
6.68636e-10
5.28004e-10
4.48528e-10
3.35077e-10
2.78408e-10
1.68457e-10
3.30125e-08
2.91494e-08
4.82256e-08
3.79861e-08
3.66948e-08
4.95594e-08
3.84388e-08
4.00795e-09
4.30792e-08
3.30676e-08
1.78651e-08
1.21884e-08
3.59568e-07
1.89944e-07
7.70197e-09
1.97226e-08
2.78122e-08
2.65089e-08
2.12663e-08
1.52853e-08
1.02935e-08
7.06926e-09
5.26202e-09
4.25509e-09
3.60599e-09
3.08828e-09
2.64927e-09
2.24584e-09
1.91759e-09
1.60515e-09
1.36625e-09
1.13638e-09
9.585e-10
7.89328e-10
6.67491e-10
5.27888e-10
4.49331e-10
3.36634e-10
2.81134e-10
1.74286e-10
3.48091e-08
3.10812e-08
2.973e-08
3.39404e-08
3.38765e-08
2.58414e-08
3.40533e-08
3.79083e-08
1.97948e-08
1.64226e-08
4.03976e-08
4.20006e-08
2.59429e-08
1.69069e-08
2.56916e-08
2.99235e-08
2.77385e-08
2.35269e-08
1.88096e-08
1.4408e-08
1.0707e-08
7.87135e-09
5.90743e-09
4.63006e-09
3.78053e-09
3.15343e-09
2.66555e-09
2.2441e-09
1.91072e-09
1.59836e-09
1.3613e-09
1.13293e-09
9.57645e-10
7.89519e-10
6.69646e-10
5.31329e-10
4.54682e-10
3.43229e-10
2.90701e-10
1.90621e-10
2.20853e-08
2.2353e-08
2.73897e-08
2.54541e-08
2.51496e-08
3.08227e-08
2.58681e-08
2.15013e-08
2.9628e-08
3.36997e-08
2.98886e-08
1.84534e-08
1.39545e-08
2.78293e-08
3.16606e-08
2.88608e-08
2.40403e-08
1.91174e-08
1.47296e-08
1.09725e-08
8.05174e-09
6.11068e-09
4.93624e-09
4.16747e-09
3.57403e-09
3.05982e-09
2.61939e-09
2.21956e-09
1.89634e-09
1.59012e-09
1.35723e-09
1.13097e-09
9.59143e-10
7.91972e-10
6.74719e-10
5.37908e-10
4.63995e-10
3.54106e-10
3.05809e-10
2.12282e-10
2.32209e-08
2.18978e-08
2.04876e-08
2.17678e-08
2.12646e-08
1.99138e-08
2.18682e-08
2.42053e-08
1.98861e-08
1.62957e-08
2.54404e-08
2.74982e-08
2.28152e-08
1.92918e-08
1.86724e-08
1.82171e-08
1.70242e-08
1.50609e-08
1.25812e-08
1.00679e-08
7.91059e-09
6.28289e-09
5.12744e-09
4.28095e-09
3.6205e-09
3.07101e-09
2.61638e-09
2.21337e-09
1.89037e-09
1.5863e-09
1.35611e-09
1.13112e-09
9.62952e-10
7.96457e-10
6.82254e-10
5.47044e-10
4.7643e-10
3.68216e-10
3.24791e-10
2.36211e-10
1.67291e-08
1.6407e-08
1.70206e-08
1.74086e-08
1.73599e-08
1.89297e-08
1.83854e-08
1.78279e-08
1.97238e-08
2.0047e-08
1.90143e-08
1.77258e-08
1.57601e-08
1.671e-08
1.85642e-08
1.79685e-08
1.58485e-08
1.32188e-08
1.06435e-08
8.47508e-09
6.85996e-09
5.71467e-09
4.85653e-09
4.15491e-09
3.55835e-09
3.0379e-09
2.59683e-09
2.20206e-09
1.88355e-09
1.58323e-09
1.35634e-09
1.13265e-09
9.68446e-10
8.02475e-10
6.91612e-10
5.58007e-10
4.90996e-10
3.84394e-10
3.4597e-10
2.60914e-10
1.59283e-08
1.51546e-08
1.3934e-08
1.43215e-08
1.41972e-08
1.41056e-08
1.49193e-08
1.5904e-08
1.66756e-08
1.51849e-08
1.60133e-08
1.77014e-08
1.72244e-08
1.53572e-08
1.37491e-08
1.2605e-08
1.14833e-08
1.0238e-08
8.91116e-09
7.65524e-09
6.56122e-09
5.62859e-09
4.82937e-09
4.13876e-09
3.54417e-09
3.02599e-09
2.58728e-09
2.19594e-09
1.87977e-09
1.58221e-09
1.35816e-09
1.13542e-09
9.75186e-10
8.09555e-10
7.02118e-10
5.7002e-10
5.0667e-10
4.01499e-10
3.67845e-10
2.85279e-10
1.26226e-08
1.18906e-08
1.1208e-08
1.14256e-08
1.16322e-08
1.23832e-08
1.29434e-08
1.33297e-08
1.42633e-08
1.49538e-08
1.46522e-08
1.42655e-08
1.40669e-08
1.36569e-08
1.30966e-08
1.23969e-08
1.13237e-08
1.00071e-08
8.68486e-09
7.49029e-09
6.45442e-09
5.55985e-09
4.78407e-09
4.10854e-09
3.52368e-09
3.0125e-09
2.57818e-09
2.19096e-09
1.87723e-09
1.58229e-09
1.36092e-09
1.13895e-09
9.82533e-10
8.17115e-10
7.13015e-10
5.82253e-10
5.22439e-10
4.18454e-10
3.89136e-10
3.08308e-10
1.11587e-08
1.03271e-08
9.20016e-09
9.17205e-09
9.27092e-09
9.61499e-09
1.04292e-08
1.12939e-08
1.23464e-08
1.28294e-08
1.29974e-08
1.33289e-08
1.34961e-08
1.32063e-08
1.24623e-08
1.14552e-08
1.03787e-08
9.30167e-09
8.2495e-09
7.25046e-09
6.32663e-09
5.48926e-09
4.74216e-09
4.08188e-09
3.50566e-09
3.0004e-09
2.56972e-09
2.1861e-09
1.87444e-09
1.58189e-09
1.36297e-09
1.14167e-09
9.88884e-10
8.2359e-10
7.22727e-10
5.93094e-10
5.36737e-10
4.33532e-10
4.08421e-10
3.28494e-10
9.36106e-09
8.4174e-09
7.44098e-09
7.21158e-09
7.40584e-09
8.06744e-09
9.01557e-09
9.91911e-09
1.09785e-08
1.17988e-08
1.23428e-08
1.26238e-08
1.2647e-08
1.23683e-08
1.17812e-08
1.09862e-08
1.00682e-08
9.0824e-09
8.08317e-09
7.11896e-09
6.22094e-09
5.40374e-09
4.67215e-09
4.02387e-09
3.45642e-09
2.95859e-09
2.53262e-09
2.15454e-09
1.84536e-09
1.55695e-09
1.34076e-09
1.12055e-09
9.7288e-10
8.06478e-10
7.10818e-10
5.80767e-10
5.31039e-10
4.24024e-10
4.10498e-10
3.23834e-10
8.38862e-09
7.24989e-09
6.22852e-09
5.91172e-09
6.06869e-09
6.61534e-09
7.50959e-09
8.45832e-09
9.4457e-09
1.02351e-08
1.07698e-08
1.10974e-08
1.11668e-08
1.09167e-08
1.0363e-08
9.60159e-09
8.72524e-09
7.79835e-09
6.86901e-09
5.97424e-09
5.13756e-09
4.3707e-09
3.67741e-09
3.0572e-09
2.50621e-09
2.02021e-09
1.59421e-09
1.2229e-09
9.09483e-10
6.36404e-10
4.37517e-10
2.54885e-10
1.63408e-10
7.13154e-11
4.42522e-11
1.44965e-11
1.19918e-11
2.88235e-12
5.76526e-12
1.77775e-12
2.91925e-09
2.0057e-09
1.46973e-09
1.29339e-09
1.20828e-09
1.13336e-09
1.07247e-09
9.28694e-10
7.46937e-10
6.00896e-10
5.15103e-10
4.70135e-10
4.14818e-10
3.29093e-10
2.31396e-10
1.45906e-10
8.25481e-11
4.12292e-11
1.774e-11
6.31322e-12
1.69784e-12
2.75186e-13
1.22267e-14
5.11987e-15
6.06151e-14
1.60986e-13
2.71667e-13
3.03948e-13
3.37675e-13
2.69935e-13
2.34321e-13
1.73671e-13
1.07561e-13
8.20115e-14
4.09137e-14
2.42002e-14
9.64703e-15
5.26008e-15
4.52294e-16
2.67773e-16
3.06948e-11
1.89847e-11
1.31782e-11
1.15549e-11
9.92084e-12
7.3639e-12
4.85634e-12
1.99513e-12
2.40103e-13
1.7443e-15
9.47753e-14
3.22738e-13
5.44578e-13
7.04115e-13
7.37491e-13
6.49834e-13
5.09817e-13
3.69449e-13
2.50675e-13
1.60935e-13
9.92889e-14
5.97289e-14
3.54486e-14
2.08272e-14
1.22693e-14
7.0835e-15
4.24418e-15
2.32306e-15
1.46913e-15
7.23939e-16
4.66151e-16
2.29713e-16
1.1123e-16
6.84214e-17
2.21506e-17
1.11505e-17
2.47573e-18
1.12479e-18
6.53339e-19
4.33087e-19
2.69156e-14
1.06544e-14
5.93492e-15
4.60486e-15
3.69745e-15
1.47197e-15
3.94076e-16
5.99188e-17
3.33119e-15
1.42075e-14
2.15795e-14
2.11644e-14
1.68216e-14
1.15292e-14
6.6933e-15
3.30126e-15
1.42728e-15
5.48874e-16
1.85035e-16
5.31245e-17
1.25135e-17
2.30217e-18
3.79111e-19
1.5605e-19
2.61452e-19
3.85588e-19
5.50462e-19
5.26448e-19
5.94519e-19
4.67664e-19
4.50575e-19
3.53719e-19
2.86327e-19
2.41687e-19
2.20275e-19
1.97279e-19
1.94037e-19
1.9399e-19
2.71011e-19
1.97885e-19
)
;

boundaryField
{
    inlet
    {
        type            calculated;
        value           nonuniform List<scalar> 
20
(
1.56568e-34
6.98496e-33
9.64876e-33
2.91878e-33
4.83509e-33
4.20529e-33
4.6279e-33
4.66962e-33
4.67098e-33
4.57049e-33
4.39858e-33
4.2565e-33
4.30533e-33
4.5653e-33
4.88142e-33
5.45935e-33
3.85416e-33
1.01972e-32
7.35127e-33
1.56958e-34
)
;
    }
    outlet
    {
        type            calculated;
        value           nonuniform List<scalar> 
27
(
1.392e-33
1.14654e-33
7.97958e-34
3.55845e-34
8.28082e-35
8.23486e-36
1.21197e-39
5.52887e-36
6.40674e-35
2.91802e-34
7.08264e-34
1.06918e-33
1.31987e-33
1.51233e-33
1.66939e-33
1.79378e-33
6.32946e-34
4.78159e-36
3.60377e-38
1.35477e-40
1.01632e-40
2.97204e-38
3.71087e-36
4.69093e-34
1.85066e-33
1.73502e-33
1.58161e-33
)
;
    }
    lowerWall
    {
        type            fixedValue;
        value           uniform 0;
    }
    upperWall
    {
        type            fixedValue;
        value           uniform 0;
    }
    defaultFaces
    {
        type            empty;
    }
}


// ************************************************************************* //
