/*--------------------------------*- C++ -*----------------------------------*\
| =========                 |                                                 |
| \\      /  F ield         | OpenFOAM: The Open Source CFD Toolbox           |
|  \\    /   O peration     | Version:  2112                                  |
|   \\  /    A nd           | Website:  www.openfoam.com                      |
|    \\/     M anipulation  |                                                 |
\*---------------------------------------------------------------------------*/
FoamFile
{
    version     2.0;
    format      ascii;
    arch        "LSB;label=32;scalar=64";
    class       volScalarField;
    location    "0.13";
    object      p;
}
// * * * * * * * * * * * * * * * * * * * * * * * * * * * * * * * * * * * * * //

dimensions      [0 2 -2 0 0 0 0];

internalField   nonuniform List<scalar> 
1880
(
0.0040097
0.00387249
0.00378241
0.00373003
0.00369865
0.00368382
0.00366673
0.00363612
0.00361002
0.00359716
0.00358564
0.00357131
0.00356214
0.00356403
0.00357271
0.00358818
0.00360559
0.003634
0.00366311
0.00370983
0.0037558
0.00382766
0.00390312
0.00401094
0.00413441
0.00429962
0.00449525
0.00475979
0.00505519
0.00548889
0.00382842
0.00379597
0.00375901
0.00371639
0.00367928
0.00366842
0.00365906
0.00362922
0.00360081
0.00358972
0.00358155
0.00356792
0.00355791
0.00356
0.00356858
0.00358333
0.00359872
0.00362505
0.00365215
0.00369525
0.00373902
0.0038038
0.00387583
0.00396909
0.00408729
0.00421766
0.00439963
0.004573
0.00480756
0.00498188
0.00379539
0.00377487
0.00374936
0.00371096
0.00367299
0.00366235
0.00365454
0.00362509
0.00359741
0.00358936
0.00358442
0.00357132
0.00355984
0.00355906
0.00356498
0.003575
0.00358745
0.0036074
0.00363209
0.00366565
0.0037067
0.003757
0.00382196
0.00389372
0.00398818
0.0040876
0.00420996
0.00433303
0.00445137
0.00452768
0.00373759
0.00372719
0.00371603
0.00368896
0.0036552
0.00364595
0.00364092
0.00361403
0.00358737
0.00358005
0.00357601
0.00356315
0.00355065
0.00354828
0.00355195
0.00355917
0.0035678
0.00358285
0.00360234
0.00362833
0.0036614
0.00369966
0.00375013
0.00380256
0.00387101
0.00393521
0.00401596
0.00407383
0.00412541
0.00413562
0.00370914
0.00370305
0.00369786
0.00367624
0.00364505
0.00363651
0.00363234
0.00360637
0.00358021
0.00357322
0.00356936
0.00355592
0.00354177
0.00353677
0.00353729
0.00354031
0.00354455
0.00355325
0.00356707
0.00358318
0.00360834
0.00363096
0.00366851
0.00369794
0.00374405
0.00377616
0.00381597
0.00383064
0.00382936
0.0037869
0.00368242
0.0036778
0.00367546
0.00365779
0.00362962
0.00362256
0.00361936
0.00359439
0.00356886
0.00356192
0.00355763
0.00354331
0.00352752
0.00352019
0.00351756
0.00351675
0.00351618
0.00351901
0.00352577
0.00353326
0.00354755
0.00355817
0.00357813
0.00359195
0.00360981
0.00362015
0.00362092
0.00360373
0.00356136
0.00348631
0.00366247
0.00365911
0.0036588
0.00364371
0.00361756
0.00361153
0.00360878
0.0035841
0.00355858
0.00355118
0.00354597
0.00353024
0.00351238
0.00350226
0.00349613
0.003491
0.00348536
0.00348183
0.00348149
0.00347971
0.00348407
0.00348136
0.00348746
0.0034827
0.0034803
0.003467
0.00343919
0.00339585
0.00332511
0.00322553
0.00364664
0.00364385
0.00364448
0.00363061
0.00360553
0.0036001
0.00359748
0.00357272
0.00354689
0.00353877
0.0035324
0.00351505
0.003495
0.00348205
0.00347238
0.00346298
0.00345224
0.00344266
0.00343499
0.00342493
0.00341876
0.00340531
0.00339618
0.00337797
0.00335451
0.00332364
0.00327277
0.00320705
0.00311903
0.00299752
0.00363446
0.00363193
0.00363299
0.00361974
0.00359518
0.00358995
0.00358718
0.00356203
0.00353554
0.00352639
0.00351858
0.00349935
0.00347691
0.00346098
0.00344773
0.00343403
0.00341826
0.00340274
0.00338808
0.00337006
0.0033544
0.00333046
0.00330874
0.00327708
0.00323756
0.00319079
0.00312175
0.00304029
0.00293634
0.00280245
0.00362568
0.0036232
0.00362433
0.00361114
0.00358654
0.00358105
0.00357776
0.00355184
0.00352433
0.00351388
0.00350445
0.00348318
0.00345827
0.00343935
0.0034226
0.00340473
0.00338413
0.00336305
0.00334175
0.00331659
0.00329197
0.00325909
0.00322572
0.00318293
0.00312986
0.00306945
0.00298802
0.0028922
0.002779
0.00263483
0.00362026
0.00361763
0.0036185
0.00360491
0.00357976
0.00357356
0.00356938
0.0035424
0.00351361
0.00350163
0.00349043
0.00346703
0.00343961
0.00341772
0.00339762
0.00337578
0.00335067
0.0033244
0.00329703
0.0032654
0.00323284
0.00319201
0.00314873
0.00309625
0.00303222
0.00296108
0.00286936
0.00276417
0.00264195
0.00249282
0.00361825
0.00361533
0.00361563
0.00360125
0.00357513
0.00356785
0.00356252
0.00353421
0.00350387
0.00349018
0.00347709
0.00345147
0.00342154
0.00339674
0.00337344
0.00334787
0.00331858
0.0032876
0.00325474
0.00321741
0.00317781
0.00313016
0.00307847
0.00301777
0.00294532
0.00286503
0.00276637
0.00265323
0.00252561
0.00237298
0.00361994
0.00361646
0.00361573
0.00359988
0.00357211
0.00356323
0.00355641
0.00352648
0.00349435
0.00347881
0.00346383
0.00343606
0.00340373
0.00337627
0.00335011
0.0033212
0.00328821
0.00325308
0.00321545
0.00317318
0.00312753
0.00307413
0.00301543
0.00294804
0.00286886
0.0027816
0.00267737
0.00255921
0.00242693
0.00227287
0.0036261
0.00362197
0.00362004
0.00360243
0.00357271
0.00356204
0.00355358
0.00352187
0.00348772
0.00347
0.0034527
0.00342253
0.00338768
0.00335758
0.00332869
0.00329672
0.00326041
0.0032216
0.00317982
0.00313332
0.00308256
0.00302435
0.00295998
0.00288712
0.00280289
0.00271007
0.00260199
0.00248008
0.00234496
0.00219041
0.00363668
0.00363093
0.00362639
0.00360544
0.00357269
0.00355971
0.00354924
0.00351537
0.00347894
0.00345906
0.00343986
0.00340776
0.00337106
0.00333907
0.00330811
0.00327375
0.00323483
0.00319308
0.00314797
0.00309803
0.00304314
0.00298107
0.00291221
0.00283506
0.00274699
0.00265002
0.00253911
0.00241494
0.00227794
0.00212365
0.00365621
0.00364885
0.00364112
0.00361565
0.0035791
0.00356364
0.00355098
0.00351461
0.00347574
0.00345372
0.00343236
0.00339786
0.0033587
0.00332413
0.00329081
0.00325409
0.00321283
0.00316857
0.0031207
0.00306792
0.00300971
0.00294454
0.00287223
0.00279175
0.0027009
0.00260083
0.00248806
0.00236252
0.0022246
0.00207102
0.00367717
0.00366534
0.00365132
0.00361989
0.00357999
0.00356285
0.00354812
0.00350933
0.00346806
0.00344346
0.00341938
0.0033826
0.00334212
0.00330694
0.0032731
0.00323546
0.00319298
0.00314725
0.00309755
0.00304281
0.00298219
0.00291477
0.00283992
0.002757
0.0026642
0.00256199
0.00244804
0.00232186
0.00218366
0.00203106
0.00373063
0.00370845
0.00367968
0.0036364
0.00359169
0.0035724
0.00355397
0.00351151
0.00346799
0.00344132
0.00341472
0.00337581
0.00333372
0.00329663
0.00326108
0.00322158
0.00317792
0.00313096
0.0030798
0.00302355
0.00296112
0.00289207
0.00281536
0.00273075
0.00263663
0.00253299
0.00241847
0.00229208
0.00215403
0.00200264
0.00375935
0.00372522
0.00368484
0.00363694
0.00359254
0.00357242
0.00355168
0.00350776
0.00346217
0.00343095
0.00339957
0.00335824
0.00331588
0.0032797
0.0032451
0.00320729
0.0031645
0.00311775
0.00306623
0.00300948
0.00294604
0.00287619
0.00279834
0.00271272
0.00261789
0.00251337
0.00239868
0.00227257
0.00213493
0.00198447
0.00393907
0.00379999
0.00370622
0.00364827
0.00360931
0.00358482
0.00355585
0.00351057
0.00346669
0.00343308
0.00339771
0.00335522
0.00331314
0.00327602
0.0032401
0.00320149
0.00315865
0.00311175
0.0030599
0.00300267
0.00293877
0.00286843
0.00279006
0.00270393
0.00260874
0.00250394
0.00238917
0.00226366
0.00212692
0.00197876
0.00564917
0.00499652
0.00419382
0.00369235
0.00330016
0.00202622
0.00112757
0.00119988
-0.00140584
-0.00236441
0.00499893
0.00454736
0.00353247
0.00315057
0.00265768
0.00131515
0.000612962
0.000346255
-0.00200453
-0.00344291
0.00454999
0.0040789
0.00345191
0.00302616
0.00247173
0.00149002
0.000590354
0.000101608
-0.00178512
-0.00267222
0.00406111
0.00369176
0.00305699
0.00259939
0.00212159
0.00121593
0.000493837
-0.000218662
-0.00127294
-0.00242597
0.00370898
0.00335204
0.00286498
0.00243612
0.00191411
0.00121531
0.00045907
-0.000206399
-0.00108755
-0.00215934
0.00337575
0.00303969
0.00260039
0.00213222
0.00165279
0.00100639
0.000330393
-0.000321997
-0.00100436
-0.00185194
0.00310283
0.0027988
0.00240098
0.00197539
0.00152377
0.00096609
0.000344197
-0.000248493
-0.000846384
-0.00157269
0.00286145
0.00256678
0.00220781
0.00179031
0.00135669
0.000854205
0.000296331
-0.000257345
-0.00076817
-0.00134588
0.00265384
0.00239232
0.00205152
0.00166937
0.00127063
0.000818233
0.000316983
-0.000168759
-0.000624712
-0.00110889
0.00247982
0.00222942
0.00191401
0.0015582
0.00117808
0.000762264
0.000318506
-0.000123999
-0.000527026
-0.000937123
0.00233109
0.00210089
0.00180583
0.00147591
0.00112423
0.000743665
0.000347604
-4.26175e-05
-0.000407728
-0.000763269
0.00220858
0.00198951
0.00171399
0.0014075
0.00107821
0.000725839
0.000370294
1.66643e-05
-0.000313378
-0.00062952
0.00210649
0.00189878
0.0016421
0.00135634
0.00105001
0.000726091
0.000402512
8.36704e-05
-0.000218934
-0.000504548
0.00202363
0.00182433
0.00158383
0.00131651
0.00103041
0.000729792
0.000432034
0.000139059
-0.000139858
-0.000402835
0.00195692
0.00176455
0.00153837
0.00128775
0.0010198
0.00074024
0.000463458
0.000191955
-6.81979e-05
-0.0003133
0.00190491
0.0017179
0.00150362
0.0012672
0.00101522
0.000753201
0.000492668
0.000237234
-7.93823e-06
-0.000239506
0.00186569
0.00168265
0.00147761
0.00125334
0.00101505
0.000767495
0.000519894
0.000276816
4.32066e-05
-0.000178022
0.00183871
0.00165892
0.00146115
0.00124639
0.00101923
0.000782906
0.000544576
0.000310097
8.47735e-05
-0.00012895
0.00182111
0.00164348
0.00145107
0.00124372
0.0010249
0.00079706
0.000565857
0.000337493
0.000117236
-9.14337e-05
0.00181844
0.00164367
0.00145447
0.00125089
0.0010357
0.000811708
0.000584353
0.000358784
0.000140688
-6.76656e-05
-0.00677994
-0.00736825
-0.00853851
-0.0104479
-0.0110906
-0.0102117
-0.00773172
-0.00490364
-0.00229532
-0.000278147
0.000941531
0.00164258
0.00191691
0.00194616
0.00184701
0.00169134
0.001519
0.00135033
0.00119485
0.00105587
0.000933583
0.000826733
0.00073348
0.000651889
0.000580153
0.000516672
0.00046009
0.00040924
0.000363191
0.000321114
0.000282379
0.000246408
0.000212723
0.000180952
0.000150693
0.000121696
9.36532e-05
6.63621e-05
3.95782e-05
1.31581e-05
-0.00672554
-0.00735191
-0.00882053
-0.011102
-0.0119687
-0.0110071
-0.00836513
-0.00528526
-0.00253696
-0.000413759
0.000884481
0.00160005
0.00187966
0.00190975
0.00181195
0.00165899
0.00149042
0.00132611
0.0011748
0.00103953
0.000920412
0.00081617
0.000725008
0.000645071
0.000574638
0.000512184
0.000456418
0.000406222
0.000360699
0.000319058
0.000280677
0.00024501
0.000211573
0.000180021
0.000149949
0.000121113
9.32182e-05
6.60535e-05
3.93955e-05
1.30998e-05
-0.00659198
-0.00808741
-0.0100318
-0.0130058
-0.0140304
-0.0128462
-0.00982746
-0.00618747
-0.00309649
-0.000738813
0.000710696
0.00148069
0.00177882
0.00181681
0.00172789
0.00158612
0.00142954
0.00127654
0.00113516
0.00100817
0.000895679
0.000796629
0.000709492
0.000632664
0.000564641
0.000504072
0.000449789
0.00040078
0.000356212
0.000315357
0.00027762
0.000242494
0.000209516
0.000178351
0.000148622
0.00012008
9.24533e-05
6.55301e-05
3.91004e-05
1.30158e-05
-0.00741655
-0.008372
-0.0108505
-0.0149131
-0.0168102
-0.01566
-0.0121239
-0.00760911
-0.00395813
-0.00124959
0.000423068
0.00128694
0.00161965
0.00167526
0.00160437
0.00148219
0.00134458
0.00120829
0.00108085
0.000965078
0.00086145
0.000769329
0.000687596
0.000614992
0.000550287
0.000492346
0.000440161
0.000392846
0.000349652
0.000309933
0.000273133
0.000238794
0.000206485
0.000175886
0.000146655
0.000118547
9.13117e-05
6.4745e-05
3.86443e-05
1.28696e-05
-0.00719104
-0.00914099
-0.0122071
-0.0169419
-0.0190579
-0.0180424
-0.0142069
-0.00890683
-0.004785
-0.00178762
8.52526e-05
0.00104245
0.0014083
0.00148479
0.0014397
0.0013459
0.00123478
0.0011209
0.00101155
0.0009101
0.0008177
0.000734357
0.000659488
0.000592264
0.000531798
0.00047722
0.000427726
0.000382586
0.000341164
0.000302903
0.000267315
0.000233991
0.000202544
0.000172681
0.000144092
0.000116547
8.98173e-05
6.37123e-05
3.80394e-05
1.26695e-05
-0.00763899
-0.00961636
-0.0123076
-0.0163324
-0.0184231
-0.0178772
-0.0145008
-0.00931554
-0.00519689
-0.00225671
-0.000294328
0.000748677
0.00114681
0.00125095
0.00124254
0.00118551
0.00110711
0.00102012
0.000932052
0.000847096
0.000767426
0.000693946
0.000626779
0.000565624
0.000509981
0.00045927
0.000412901
0.000370308
0.000330977
0.000294446
0.000260302
0.000228192
0.000197779
0.000168801
0.000140984
0.00011412
8.80007e-05
6.24537e-05
3.73006e-05
1.24249e-05
-0.0056068
-0.00879418
-0.011076
-0.014293
-0.0155172
-0.0154546
-0.0129696
-0.00871621
-0.00513125
-0.00258109
-0.000810131
0.000231599
0.000730083
0.000934573
0.00100434
0.00100306
0.000965019
0.000908154
0.000842997
0.000775843
0.000710186
0.000647784
0.000589363
0.000535122
0.000484978
0.000438676
0.00039587
0.000356182
0.000319237
0.000284686
0.000252196
0.000221482
0.000192257
0.000164301
0.000137375
0.000111299
8.58869e-05
6.09866e-05
3.64385e-05
1.21389e-05
-0.00533717
-0.0067903
-0.0107362
-0.0130516
-0.0132185
-0.0128891
-0.011072
-0.00776659
-0.00483952
-0.00268322
-0.00117136
-0.00033472
0.000121851
0.000459294
0.000685515
0.000787726
0.000809062
0.00078991
0.000750739
0.000702355
0.000650707
0.000599062
0.000549157
0.000501817
0.00045732
0.000415656
0.000376681
0.00034017
0.000305874
0.000273539
0.000242915
0.000213784
0.000185913
0.000159125
0.000133219
0.000108046
8.34473e-05
5.92917e-05
3.54415e-05
1.18078e-05
-0.00461241
-0.00687077
-0.00966796
-0.0110408
-0.0107596
-0.0103503
-0.00887901
-0.00641301
-0.00428437
-0.00260867
-0.00135359
-0.000637184
-0.000245821
7.30146e-05
0.000347654
0.000529601
0.000625327
0.000655347
0.000646793
0.000618486
0.000582147
0.000543065
0.000503381
0.000464232
0.000426291
0.000389917
0.000355253
0.000322291
0.000290938
0.000261063
0.000232513
0.000205142
0.000178781
0.000153298
0.000128536
0.000104377
8.06935e-05
5.7377e-05
3.43144e-05
1.14333e-05
-0.00382798
-0.00550943
-0.00726623
-0.00809907
-0.00834675
-0.00818152
-0.00719366
-0.00538444
-0.00370033
-0.00238473
-0.00137854
-0.000743556
-0.000393159
-0.000100444
0.000189496
0.000385386
0.000491497
0.00053783
0.000550405
0.000542614
0.000521097
0.000492139
0.000460139
0.000427415
0.000395043
0.00036349
0.000332953
0.000303501
0.000275134
0.000247799
0.000221415
0.0001959
0.000171138
0.000147044
0.000123504
0.000100431
7.77285e-05
5.5314e-05
3.30993e-05
1.10295e-05
-0.00326879
-0.00448254
-0.00578287
-0.00658419
-0.00663332
-0.00651529
-0.00589035
-0.00458103
-0.00319905
-0.00214957
-0.00138962
-0.000836238
-0.000408837
-2.10268e-05
0.000245693
0.000367411
0.000440017
0.00046798
0.00047286
0.000465512
0.000451458
0.00043289
0.000411034
0.000386911
0.000361471
0.000335488
0.000309495
0.000283805
0.000258585
0.000233904
0.000209776
0.000186192
0.000163099
0.000140459
0.000118199
9.62655e-05
7.4597e-05
5.31337e-05
3.18146e-05
1.06026e-05
-0.00277752
-0.00362469
-0.00454722
-0.00503417
-0.0052482
-0.0052196
-0.00477682
-0.00389301
-0.00293026
-0.00208501
-0.00140389
-0.000944183
-0.000733765
-0.000559351
-0.000238437
0.000119198
0.000326023
0.00040942
0.000427793
0.00042255
0.000408938
0.000391466
0.000371982
0.00035139
0.000330092
0.000308295
0.000286189
0.000263954
0.000241748
0.000219679
0.000197811
0.000176184
0.000154793
0.000133642
0.0001127
9.19443e-05
7.13454e-05
5.08686e-05
3.04795e-05
1.01589e-05
-0.00234814
-0.00298752
-0.00371079
-0.00417541
-0.00427073
-0.00425734
-0.00398093
-0.00334686
-0.00261426
-0.00192213
-0.00126578
-0.000832169
-0.000701638
-0.000561423
-0.000282195
-1.77012e-05
0.000138985
0.000228168
0.000278742
0.000306549
0.000320035
0.000323389
0.000319166
0.000309392
0.000295813
0.000279782
0.000262223
0.00024372
0.000224646
0.00020524
0.000185657
0.000166005
0.000146333
0.000126691
0.000107087
8.75287e-05
6.80205e-05
4.8551e-05
2.9113e-05
9.7047e-06
-0.00200293
-0.00247151
-0.00301207
-0.00335532
-0.00351402
-0.00351849
-0.00330201
-0.00285005
-0.00232455
-0.00182019
-0.00138035
-0.00103883
-0.000735268
-0.00040936
-0.000125987
6.36268e-05
0.000174765
0.000237366
0.000270848
0.000286636
0.000291676
0.000290176
0.000284619
0.000276283
0.000265721
0.000253257
0.000239224
0.000223957
0.000207764
0.000190892
0.000173527
0.000155815
0.000137846
0.000119706
0.000101438
8.3081e-05
6.46688e-05
4.62137e-05
2.77345e-05
9.24644e-06
-0.00170648
-0.00207946
-0.00252285
-0.0028365
-0.00294414
-0.00296147
-0.00282625
-0.00248654
-0.00206597
-0.00163916
-0.00124561
-0.000936021
-0.000696806
-0.000515903
-0.000344974
-0.000179186
-4.50932e-05
5.46436e-05
0.000126059
0.00017525
0.000207417
0.000226515
0.000235578
0.00023719
0.000233531
0.000226197
0.000216251
0.00020439
0.000191101
0.000176734
0.000161547
0.000145737
0.00012944
0.000112778
9.583e-05
7.86613e-05
6.1336e-05
4.38883e-05
2.63625e-05
8.79035e-06
-0.00144175
-0.00175206
-0.00208737
-0.0023452
-0.00247775
-0.00250349
-0.00240685
-0.00216103
-0.00183925
-0.00152621
-0.00125501
-0.000973765
-0.000705982
-0.00046783
-0.000262834
-0.000106919
2.58816e-06
7.76822e-05
0.000128375
0.000161711
0.000183006
0.000196124
0.000203502
0.000206406
0.000205518
0.000201407
0.000194634
0.0001857
0.000175045
0.000163016
0.000149896
0.00013591
0.000121228
0.000106
9.03365e-05
7.4328e-05
5.80661e-05
4.16057e-05
2.50155e-05
8.34249e-06
-0.00122794
-0.00149268
-0.00177417
-0.0020032
-0.00211734
-0.00214714
-0.00208431
-0.00191039
-0.00166341
-0.00139674
-0.00112813
-0.000882488
-0.000682092
-0.000515288
-0.000369775
-0.000239389
-0.000130246
-4.20744e-05
2.75897e-05
8.08258e-05
0.000119754
0.000146588
0.000163664
0.000173297
0.000177377
0.000177232
0.000173802
0.000167764
0.000159644
0.000149846
0.000138693
0.000126447
0.000113308
9.9455e-05
8.50269e-05
7.01362e-05
5.49011e-05
3.93955e-05
2.37108e-05
7.9087e-06
-0.0010333
-0.00126702
-0.00149724
-0.00169212
-0.00181026
-0.00185203
-0.00181671
-0.00168382
-0.00148653
-0.00127724
-0.00108405
-0.00089025
-0.000693779
-0.000517064
-0.000356831
-0.000224732
-0.000122074
-4.38976e-05
1.49422e-05
5.89005e-05
9.17324e-05
0.000116145
0.000133739
0.000145534
0.000152405
0.00015515
0.000154475
0.000150972
0.000145145
0.0001374
0.000128079
0.000117462
0.000105777
9.32235e-05
7.99663e-05
6.61381e-05
5.18806e-05
3.72854e-05
2.24649e-05
7.49448e-06
-0.000874307
-0.00108552
-0.00128798
-0.0014644
-0.0015738
-0.00161651
-0.00159645
-0.00150573
-0.00136046
-0.00118771
-0.00100774
-0.00082875
-0.000665402
-0.000519465
-0.000393299
-0.000283788
-0.000189137
-0.000109192
-4.33177e-05
9.40632e-06
5.02336e-05
8.08702e-05
0.000103183
0.000118781
0.000128917
0.000134564
0.0001365
0.00013535
0.000131637
0.000125786
0.000118157
0.000109051
9.87192e-05
8.73774e-05
7.52147e-05
6.23817e-05
4.90416e-05
3.53014e-05
2.12934e-05
7.10496e-06
-0.000734894
-0.000929264
-0.0011084
-0.00126467
-0.00137077
-0.00142021
-0.00141761
-0.00135275
-0.0012337
-0.00109256
-0.000948764
-0.000807421
-0.000666446
-0.000531104
-0.000407456
-0.000298295
-0.000206122
-0.000130212
-6.83759e-05
-1.83672e-05
2.16909e-05
5.32314e-05
7.7439e-05
9.53656e-05
0.000107943
0.000115975
0.00012016
0.000121086
0.000119266
0.000115124
0.000109034
0.000101307
9.22121e-05
8.19827e-05
7.0827e-05
5.89113e-05
4.64178e-05
3.34675e-05
2.02103e-05
6.7449e-06
-0.000618831
-0.00080152
-0.000966451
-0.00111046
-0.00121168
-0.00126419
-0.00127072
-0.00122652
-0.0011382
-0.00102561
-0.000903089
-0.00077639
-0.000649719
-0.00052879
-0.000418154
-0.000320417
-0.000235386
-0.000162048
-9.99117e-05
-4.83109e-05
-6.19885e-06
2.75736e-05
5.40857e-05
7.4315e-05
8.91332e-05
9.93007e-05
0.000105485
0.000108256
0.000108121
0.000105507
0.000100794
9.43049e-05
8.63247e-05
7.70986e-05
6.68525e-05
5.57669e-05
4.404e-05
3.18054e-05
1.92289e-05
6.41867e-06
-0.000520443
-0.000694667
-0.000848903
-0.000982716
-0.00107991
-0.00113508
-0.00115132
-0.0011243
-0.00105583
-0.000962111
-0.000858095
-0.000749761
-0.000639583
-0.000531768
-0.000430556
-0.000338632
-0.000256898
-0.000185499
-0.000124225
-7.25018e-05
-2.94973e-05
5.68554e-06
3.39108e-05
5.59917e-05
7.26844e-05
8.46741e-05
9.25827e-05
9.69574e-05
9.8294e-05
9.70176e-05
9.35153e-05
8.81157e-05
8.11179e-05
7.27773e-05
6.33352e-05
5.29841e-05
4.19357e-05
3.03349e-05
1.83609e-05
6.13027e-06
-0.000439355
-0.000608626
-0.000756699
-0.000882154
-0.000976253
-0.00103398
-0.00105662
-0.00104131
-0.000989548
-0.000913591
-0.00082559
-0.000731089
-0.000632669
-0.000534316
-0.000440405
-0.000353761
-0.000275549
-0.000206123
-0.000145532
-9.35359e-05
-4.96249e-05
-1.31481e-05
1.65864e-05
4.027e-05
5.85728e-05
7.21237e-05
8.15093e-05
8.72577e-05
8.98555e-05
8.97267e-05
8.72631e-05
8.27982e-05
7.66448e-05
6.90646e-05
6.03137e-05
5.05948e-05
4.01293e-05
2.90735e-05
1.76171e-05
5.88354e-06
-0.000372889
-0.000538925
-0.000682567
-0.000803291
-0.000895004
-0.000954226
-0.000981929
-0.000976402
-0.000938244
-0.00087631
-0.000800717
-0.000717072
-0.000628268
-0.00053794
-0.000450113
-0.000367635
-0.00029198
-0.000223861
-0.000163619
-0.000111266
-6.65176e-05
-2.89056e-05
2.12708e-06
2.71738e-05
4.68355e-05
6.16985e-05
7.23202e-05
7.92166e-05
8.28647e-05
8.36909e-05
8.20901e-05
7.84001e-05
7.29479e-05
6.59968e-05
5.7819e-05
4.86238e-05
3.86405e-05
2.80357e-05
1.7006e-05
5.68068e-06
-0.000320748
-0.000485643
-0.000626781
-0.000744165
-0.000834157
-0.000894547
-0.000926255
-0.000928416
-0.000900964
-0.000850109
-0.000784296
-0.000709069
-0.000627598
-0.000543288
-0.000459892
-0.000380327
-0.000306348
-0.00023896
-0.000178731
-0.000125872
-8.02778e-05
-4.16233e-05
-9.4561e-06
1.67472e-05
3.7539e-05
5.34777e-05
6.50999e-05
7.29186e-05
7.74022e-05
7.89863e-05
7.80646e-05
7.49835e-05
7.00816e-05
6.36199e-05
5.5891e-05
4.71021e-05
3.74938e-05
2.72397e-05
1.6541e-05
5.53075e-06
-0.000281431
-0.000447575
-0.000588618
-0.000704171
-0.000792764
-0.000853697
-0.000888193
-0.000896171
-0.000877451
-0.000836025
-0.000778252
-0.000709241
-0.000632662
-0.0005521
-0.000471203
-0.000392977
-0.000319468
-0.00025195
-0.000191181
-0.000137513
-9.09626e-05
-5.12946e-05
-1.81168e-05
9.05853e-06
3.07612e-05
4.75414e-05
5.99262e-05
6.84378e-05
7.35352e-05
7.56748e-05
7.52411e-05
7.25965e-05
6.8088e-05
6.19685e-05
5.45593e-05
4.60533e-05
3.67072e-05
2.66969e-05
1.62308e-05
5.43791e-06
-0.000260217
-0.000427637
-0.000568981
-0.000683953
-0.000771638
-0.00083259
-0.000868459
-0.000879142
-0.00086447
-0.000827834
-0.000774471
-0.000709058
-0.000635427
-0.000557175
-0.00047785
-0.000400469
-0.000327238
-0.000259614
-0.000198488
-0.000144308
-9.71631e-05
-5.68753e-05
-2.30879e-05
4.66616e-06
2.69057e-05
4.41761e-05
5.70025e-05
6.59112e-05
7.13585e-05
7.38139e-05
7.36526e-05
7.12572e-05
6.69635e-05
6.10393e-05
5.38041e-05
4.54542e-05
3.62525e-05
2.63726e-05
1.60373e-05
5.37436e-06
)
;

boundaryField
{
    inlet
    {
        type            zeroGradient;
    }
    outlet
    {
        type            fixedValue;
        value           uniform 0;
    }
    lowerWall
    {
        type            zeroGradient;
    }
    upperWall
    {
        type            zeroGradient;
    }
    defaultFaces
    {
        type            empty;
    }
}


// ************************************************************************* //
