/*--------------------------------*- C++ -*----------------------------------*\
| =========                 |                                                 |
| \\      /  F ield         | OpenFOAM: The Open Source CFD Toolbox           |
|  \\    /   O peration     | Version:  2112                                  |
|   \\  /    A nd           | Website:  www.openfoam.com                      |
|    \\/     M anipulation  |                                                 |
\*---------------------------------------------------------------------------*/
FoamFile
{
    version     2.0;
    format      ascii;
    arch        "LSB;label=32;scalar=64";
    class       surfaceScalarField;
    location    "0.13";
    object      phi;
}
// * * * * * * * * * * * * * * * * * * * * * * * * * * * * * * * * * * * * * //

dimensions      [0 3 -1 0 0 0 0];

oriented        oriented;

internalField   nonuniform List<scalar> 
3653
(
9.92935e-07
7.06489e-09
9.79573e-07
1.33624e-08
9.64069e-07
1.55039e-08
9.48517e-07
1.55514e-08
9.32629e-07
1.58881e-08
9.16297e-07
1.63327e-08
8.99729e-07
1.65679e-08
8.82218e-07
1.75106e-08
8.63407e-07
1.88114e-08
8.44865e-07
1.85417e-08
8.28652e-07
1.62133e-08
8.15684e-07
1.29673e-08
8.05568e-07
1.01165e-08
7.97999e-07
7.56865e-09
7.91701e-07
6.2982e-09
7.86952e-07
4.74871e-09
7.81186e-07
5.76579e-09
7.77101e-07
4.08505e-09
7.69263e-07
7.838e-09
7.6483e-07
4.43381e-09
7.53186e-07
1.16434e-08
7.46826e-07
6.35999e-09
7.30222e-07
1.66037e-08
7.18769e-07
1.14531e-08
6.9485e-07
2.39193e-08
6.73226e-07
2.16236e-08
6.35208e-07
3.8018e-08
5.89432e-07
4.57761e-08
5.24e-07
6.54327e-08
1.1954e-07
4.04459e-07
1.00287e-06
4.19471e-09
1.00645e-06
9.7811e-09
1.00905e-06
1.29081e-08
1.01059e-06
1.401e-08
1.01166e-06
1.48134e-08
1.01231e-06
1.56846e-08
1.01252e-06
1.63552e-08
1.01262e-06
1.74108e-08
1.01259e-06
1.88431e-08
1.01186e-06
1.92733e-08
1.01008e-06
1.79951e-08
1.00744e-06
1.56055e-08
1.00427e-06
1.32826e-08
1.00075e-06
1.10946e-08
9.96942e-07
1.01046e-08
9.92866e-07
8.82491e-09
9.88373e-07
1.02585e-08
9.83542e-07
8.91628e-09
9.7747e-07
1.391e-08
9.71623e-07
1.02808e-08
9.62475e-07
2.07911e-08
9.55023e-07
1.38128e-08
9.41509e-07
3.01169e-08
9.29472e-07
2.34902e-08
9.11705e-07
4.16865e-08
8.88906e-07
4.44232e-08
8.64247e-07
6.26763e-08
8.31199e-07
7.88248e-08
7.79729e-07
1.16902e-07
1.3149e-07
7.6778e-07
1.00167e-06
2.51976e-09
1.00476e-06
6.69392e-09
1.00783e-06
9.84362e-09
1.01022e-06
1.16193e-08
1.01227e-06
1.2759e-08
1.01424e-06
1.37174e-08
1.0161e-06
1.44954e-08
1.01808e-06
1.54296e-08
1.02026e-06
1.66586e-08
1.02204e-06
1.75021e-08
1.02262e-06
1.7406e-08
1.02182e-06
1.64144e-08
1.01985e-06
1.52526e-08
1.01697e-06
1.39663e-08
1.01356e-06
1.35233e-08
1.00957e-06
1.28062e-08
1.00555e-06
1.42826e-08
1.00069e-06
1.37715e-08
9.96087e-07
1.85176e-08
9.89886e-07
1.64825e-08
9.837e-07
2.69768e-08
9.7603e-07
2.14828e-08
9.662e-07
3.99469e-08
9.56926e-07
3.27642e-08
9.41801e-07
5.68116e-08
9.29162e-07
5.70617e-08
9.09587e-07
8.22514e-08
8.90336e-07
9.80763e-08
8.73424e-07
1.33813e-07
1.59952e-07
8.44963e-07
1.00077e-06
1.75261e-09
1.00249e-06
4.97191e-09
1.00466e-06
7.67642e-09
1.00666e-06
9.61551e-09
1.00845e-06
1.09714e-08
1.0102e-06
1.19603e-08
1.01198e-06
1.27251e-08
1.01384e-06
1.3569e-08
1.01579e-06
1.47064e-08
1.01746e-06
1.5834e-08
1.01834e-06
1.65187e-08
1.01823e-06
1.653e-08
1.01721e-06
1.62712e-08
1.01543e-06
1.57452e-08
1.01311e-06
1.58467e-08
1.01021e-06
1.56993e-08
1.00707e-06
1.7422e-08
1.00318e-06
1.76659e-08
9.99379e-07
2.23182e-08
9.93979e-07
2.18827e-08
9.89487e-07
3.14687e-08
9.81709e-07
2.92612e-08
9.76258e-07
4.53978e-08
9.65577e-07
4.34456e-08
9.58308e-07
6.40803e-08
9.45924e-07
6.94456e-08
9.35492e-07
9.2684e-08
9.24959e-07
1.08608e-07
9.1396e-07
1.44813e-07
1.62569e-07
9.11343e-07
1.00038e-06
1.37152e-09
1.00152e-06
3.83382e-09
1.00318e-06
6.01243e-09
1.00492e-06
7.87762e-09
1.00656e-06
9.33692e-09
1.00816e-06
1.0358e-08
1.00977e-06
1.11137e-08
1.01141e-06
1.19238e-08
1.0131e-06
1.30209e-08
1.01464e-06
1.42921e-08
1.01574e-06
1.54214e-08
1.01614e-06
1.61305e-08
1.01584e-06
1.65689e-08
1.0148e-06
1.67856e-08
1.01329e-06
1.73591e-08
1.01107e-06
1.79137e-08
1.00877e-06
1.9724e-08
1.00551e-06
2.09248e-08
1.00267e-06
2.5159e-08
9.98107e-07
2.6448e-08
9.94788e-07
3.47878e-08
9.88484e-07
3.55649e-08
9.8477e-07
4.91115e-08
9.76565e-07
5.16502e-08
9.72711e-07
6.79347e-08
9.62841e-07
7.93155e-08
9.60564e-07
9.49615e-08
9.50232e-07
1.1894e-07
9.52964e-07
1.4208e-07
1.66905e-07
9.48628e-07
1.00032e-06
1.05442e-09
1.00114e-06
3.00716e-09
1.00239e-06
4.76137e-09
1.00385e-06
6.42045e-09
1.00534e-06
7.85332e-09
1.0068e-06
8.88982e-09
1.00827e-06
9.64362e-09
1.00977e-06
1.04305e-08
1.01128e-06
1.15066e-08
1.01271e-06
1.28646e-08
1.01387e-06
1.42621e-08
1.01456e-06
1.54375e-08
1.01475e-06
1.63836e-08
1.01434e-06
1.71911e-08
1.01353e-06
1.81697e-08
1.01211e-06
1.93359e-08
1.01056e-06
2.12701e-08
1.00819e-06
2.32941e-08
1.0062e-06
2.71529e-08
1.00273e-06
2.99199e-08
1.00058e-06
3.69309e-08
9.95802e-07
4.03465e-08
9.93667e-07
5.12465e-08
9.88201e-07
5.71165e-08
9.8546e-07
7.06759e-08
9.81748e-07
8.30277e-08
9.78052e-07
9.86576e-08
9.78706e-07
1.18286e-07
9.79411e-07
1.41375e-07
1.62227e-07
9.84089e-07
1.00023e-06
8.28112e-10
1.00086e-06
2.37462e-09
1.00186e-06
3.76444e-09
1.00312e-06
5.16002e-09
1.00448e-06
6.48746e-09
1.00587e-06
7.5034e-09
1.00728e-06
8.23103e-09
1.00874e-06
8.96822e-09
1.01025e-06
1.00021e-08
1.01171e-06
1.13998e-08
1.01301e-06
1.29622e-08
1.01398e-06
1.44669e-08
1.01457e-06
1.57921e-08
1.01469e-06
1.70802e-08
1.01446e-06
1.83935e-08
1.01371e-06
2.00889e-08
1.01285e-06
2.21277e-08
1.01132e-06
2.48213e-08
1.01012e-06
2.83578e-08
1.00782e-06
3.2223e-08
1.00665e-06
3.80926e-08
1.00352e-06
4.34848e-08
1.00293e-06
5.18308e-08
9.99272e-07
6.07759e-08
9.99728e-07
7.02203e-08
9.96935e-07
8.58206e-08
9.9921e-07
9.63828e-08
9.99749e-07
1.17747e-07
1.00605e-06
1.35069e-07
1.54853e-07
1.01343e-06
1.00019e-06
6.37486e-10
1.00073e-06
1.83497e-09
1.00161e-06
2.88924e-09
1.00275e-06
4.01556e-09
1.00405e-06
5.18758e-09
1.00541e-06
6.14803e-09
1.0068e-06
6.83893e-09
1.00825e-06
7.51818e-09
1.00976e-06
8.49082e-09
1.01128e-06
9.88139e-09
1.01271e-06
1.15259e-08
1.01393e-06
1.32461e-08
1.01488e-06
1.48475e-08
1.01545e-06
1.65105e-08
1.01575e-06
1.80968e-08
1.01562e-06
2.02106e-08
1.01541e-06
2.23401e-08
1.0147e-06
2.55302e-08
1.01426e-06
2.87954e-08
1.01308e-06
3.34087e-08
1.0128e-06
3.83725e-08
1.01134e-06
4.49395e-08
1.01157e-06
5.1603e-08
1.0107e-06
6.16471e-08
1.01143e-06
6.94927e-08
1.01302e-06
8.42315e-08
1.01499e-06
9.44099e-08
1.02026e-06
1.12477e-07
1.02757e-06
1.27756e-07
1.46568e-07
1.03586e-06
1.00018e-06
4.6236e-10
1.00067e-06
1.33622e-09
1.00148e-06
2.08177e-09
1.00257e-06
2.92938e-09
1.00384e-06
3.91771e-09
1.00519e-06
4.79365e-09
1.0066e-06
5.42764e-09
1.00809e-06
6.02892e-09
1.00967e-06
6.91318e-09
1.0113e-06
8.25486e-09
1.0129e-06
9.92285e-09
1.01437e-06
1.17771e-08
1.01564e-06
1.35778e-08
1.01662e-06
1.55242e-08
1.01739e-06
1.73329e-08
1.01784e-06
1.97563e-08
1.01821e-06
2.1969e-08
1.01827e-06
2.54752e-08
1.01853e-06
2.85316e-08
1.01837e-06
3.35731e-08
1.01896e-06
3.77853e-08
1.01883e-06
4.50663e-08
1.02024e-06
5.01892e-08
1.02086e-06
6.10341e-08
1.02345e-06
6.68987e-08
1.02626e-06
8.14203e-08
1.03087e-06
8.97966e-08
1.03736e-06
1.05987e-07
1.04598e-06
1.19142e-07
1.34756e-07
1.05779e-06
1.00017e-06
2.90328e-10
1.00066e-06
8.46732e-10
1.00146e-06
1.28788e-09
1.00253e-06
1.84983e-09
1.00382e-06
2.62905e-09
1.00522e-06
3.39392e-09
1.0067e-06
3.95468e-09
1.00826e-06
4.46538e-09
1.00993e-06
5.2428e-09
1.01168e-06
6.50072e-09
1.01346e-06
8.1429e-09
1.01518e-06
1.00658e-08
1.01675e-06
1.20061e-08
1.01811e-06
1.416e-08
1.0193e-06
1.61487e-08
1.02027e-06
1.87833e-08
1.02117e-06
2.10705e-08
1.02191e-06
2.47311e-08
1.02281e-06
2.76366e-08
1.02357e-06
3.28061e-08
1.02488e-06
3.64827e-08
1.02604e-06
4.39038e-08
1.02818e-06
4.80502e-08
1.03053e-06
5.86809e-08
1.03386e-06
6.35647e-08
1.03862e-06
7.66606e-08
1.04427e-06
8.41549e-08
1.05195e-06
9.82998e-08
1.06229e-06
1.08804e-07
1.23809e-07
1.07324e-06
1.00018e-06
1.11034e-10
1.00069e-06
3.35952e-10
1.00151e-06
4.64809e-10
1.00264e-06
7.25016e-10
1.00399e-06
1.27674e-09
1.00547e-06
1.914e-09
1.00703e-06
2.39228e-09
1.00869e-06
2.80304e-09
1.01048e-06
3.45536e-09
1.01239e-06
4.59701e-09
1.01436e-06
6.17371e-09
1.0163e-06
8.11808e-09
1.01815e-06
1.01557e-08
1.01986e-06
1.24579e-08
1.02141e-06
1.45931e-08
1.02284e-06
1.73582e-08
1.0242e-06
1.97064e-08
1.02554e-06
2.33897e-08
1.02701e-06
2.61722e-08
1.02856e-06
3.12532e-08
1.03054e-06
3.45055e-08
1.0327e-06
4.17387e-08
1.03564e-06
4.51144e-08
1.03913e-06
5.51865e-08
1.04348e-06
5.92154e-08
1.04928e-06
7.08593e-08
1.05598e-06
7.74611e-08
1.06477e-06
8.95094e-08
1.07515e-06
9.84183e-08
1.10871e-07
1.08809e-06
1.0002e-06
-8.59036e-11
1.00076e-06
-2.22808e-10
1.00165e-06
-4.26048e-10
1.00285e-06
-4.80534e-10
1.00431e-06
-1.76944e-10
1.0059e-06
3.21445e-10
1.00758e-06
7.06786e-10
1.00938e-06
1.00819e-09
1.01131e-06
1.5219e-09
1.01338e-06
2.52466e-09
1.01555e-06
4.0073e-09
1.01773e-06
5.93969e-09
1.01984e-06
8.04951e-09
1.02183e-06
1.04627e-08
1.0237e-06
1.27236e-08
1.0255e-06
1.55563e-08
1.02726e-06
1.79499e-08
1.0291e-06
2.1547e-08
1.03105e-06
2.4224e-08
1.03327e-06
2.9033e-08
1.03581e-06
3.19691e-08
1.03883e-06
3.87119e-08
1.04238e-06
4.15674e-08
1.04686e-06
5.0707e-08
1.05193e-06
5.41408e-08
1.05855e-06
6.42426e-08
1.06607e-06
6.99424e-08
1.07526e-06
8.03226e-08
1.08644e-06
8.7237e-08
9.8419e-08
1.09889e-06
1.00023e-06
-3.1405e-10
1.00087e-06
-8.69323e-10
1.0019e-06
-1.45313e-09
1.00326e-06
-1.84362e-09
1.00486e-06
-1.7754e-09
1.0066e-06
-1.41337e-09
1.00843e-06
-1.12277e-09
1.01037e-06
-9.32063e-10
1.01245e-06
-5.6065e-10
1.01468e-06
2.90871e-10
1.01703e-06
1.65744e-09
1.01941e-06
3.56646e-09
1.02172e-06
5.73592e-09
1.02395e-06
8.23105e-09
1.02608e-06
1.05999e-08
1.02818e-06
1.3454e-08
1.03026e-06
1.58715e-08
1.0325e-06
1.93013e-08
1.03486e-06
2.18662e-08
1.03762e-06
2.62776e-08
1.04064e-06
2.89479e-08
1.04434e-06
3.50126e-08
1.04842e-06
3.74792e-08
1.05363e-06
4.5503e-08
1.0593e-06
4.84714e-08
1.06651e-06
5.7029e-08
1.07451e-06
6.19424e-08
1.08426e-06
7.05784e-08
1.09534e-06
7.61578e-08
8.54288e-08
1.10833e-06
1.00027e-06
-5.79531e-10
1.00102e-06
-1.62159e-09
1.00221e-06
-2.64609e-09
1.00375e-06
-3.38541e-09
1.00553e-06
-3.54803e-09
1.00744e-06
-3.32782e-09
1.00946e-06
-3.14339e-09
1.0116e-06
-3.07229e-09
1.0139e-06
-2.86297e-09
1.01638e-06
-2.18869e-09
1.01896e-06
-9.23968e-10
1.02154e-06
9.87993e-10
1.02402e-06
3.25812e-09
1.0264e-06
5.85588e-09
1.02866e-06
8.33367e-09
1.03094e-06
1.11737e-08
1.03323e-06
1.35839e-08
1.03575e-06
1.67789e-08
1.03842e-06
1.91991e-08
1.04157e-06
2.31218e-08
1.04499e-06
2.55337e-08
1.0492e-06
3.08021e-08
1.05373e-06
3.29474e-08
1.05946e-06
3.97712e-08
1.0656e-06
4.23333e-08
1.0732e-06
4.94268e-08
1.08161e-06
5.35316e-08
1.09153e-06
6.06642e-08
1.10273e-06
6.49599e-08
7.2686e-08
1.11547e-06
1.00038e-06
-9.57233e-10
1.00137e-06
-2.61464e-09
1.00288e-06
-4.15099e-09
1.0047e-06
-5.20663e-09
1.00669e-06
-5.54443e-09
1.00882e-06
-5.45296e-09
1.01105e-06
-5.37312e-09
1.0134e-06
-5.42063e-09
1.01591e-06
-5.37581e-09
1.01857e-06
-4.84941e-09
1.02126e-06
-3.61276e-09
1.02387e-06
-1.62485e-09
1.02635e-06
7.75244e-10
1.02876e-06
3.45025e-09
1.03109e-06
6.00147e-09
1.03349e-06
8.77761e-09
1.03593e-06
1.11379e-08
1.03867e-06
1.4046e-08
1.04159e-06
1.62805e-08
1.04505e-06
1.96601e-08
1.04879e-06
2.17938e-08
1.05338e-06
2.62124e-08
1.05828e-06
2.80483e-08
1.06438e-06
3.36694e-08
1.07088e-06
3.58341e-08
1.07876e-06
4.15465e-08
1.08739e-06
4.49002e-08
1.09745e-06
5.06003e-08
1.10853e-06
5.38861e-08
6.00346e-08
1.12118e-06
1.00045e-06
-1.40517e-09
1.00178e-06
-3.94893e-09
1.00374e-06
-6.10659e-09
1.00589e-06
-7.36347e-09
1.00813e-06
-7.78168e-09
1.01051e-06
-7.83275e-09
1.01301e-06
-7.87436e-09
1.01564e-06
-8.04535e-09
1.01846e-06
-8.19316e-09
1.02142e-06
-7.81491e-09
1.02435e-06
-6.53768e-09
1.02709e-06
-4.36522e-09
1.0296e-06
-1.73884e-09
1.03193e-06
1.12225e-09
1.03412e-06
3.81165e-09
1.03637e-06
6.52454e-09
1.03873e-06
8.77379e-09
1.04147e-06
1.13072e-08
1.04448e-06
1.3271e-08
1.04811e-06
1.60369e-08
1.05206e-06
1.7841e-08
1.0569e-06
2.13719e-08
1.06207e-06
2.288e-08
1.06841e-06
2.7324e-08
1.07519e-06
2.90603e-08
1.08323e-06
3.35078e-08
1.09201e-06
3.61126e-08
1.10209e-06
4.05278e-08
1.11306e-06
4.29107e-08
4.76577e-08
1.12544e-06
1.00084e-06
-2.24403e-09
1.00278e-06
-5.88765e-09
1.00528e-06
-8.60974e-09
1.00777e-06
-9.84876e-09
1.01023e-06
-1.02476e-08
1.01286e-06
-1.04621e-08
1.01565e-06
-1.06605e-08
1.01864e-06
-1.10402e-08
1.0219e-06
-1.14552e-08
1.02519e-06
-1.11044e-08
1.02813e-06
-9.47287e-09
1.03057e-06
-6.80614e-09
1.03261e-06
-3.77849e-09
1.03446e-06
-7.25129e-10
1.03634e-06
1.92983e-09
1.03844e-06
4.4226e-09
1.04078e-06
6.43404e-09
1.04359e-06
8.49986e-09
1.04672e-06
1.01416e-08
1.05051e-06
1.22474e-08
1.05464e-06
1.37032e-08
1.05969e-06
1.63281e-08
1.06507e-06
1.75022e-08
1.07158e-06
2.08065e-08
1.07855e-06
2.20953e-08
1.08669e-06
2.53634e-08
1.09555e-06
2.72532e-08
1.10561e-06
3.04749e-08
1.11643e-06
3.20815e-08
3.55238e-08
1.12857e-06
1.00176e-06
-4.00883e-09
1.0051e-06
-9.22554e-09
1.00854e-06
-1.20433e-08
1.01145e-06
-1.27624e-08
1.01425e-06
-1.30462e-08
1.01718e-06
-1.33946e-08
1.02016e-06
-1.36373e-08
1.02337e-06
-1.42493e-08
1.02696e-06
-1.50491e-08
1.03048e-06
-1.46278e-08
1.03332e-06
-1.23064e-08
1.03535e-06
-8.83607e-09
1.03684e-06
-5.26846e-09
1.03814e-06
-2.02973e-09
1.03941e-06
6.63684e-10
1.04093e-06
2.89622e-09
1.04285e-06
4.52297e-09
1.04538e-06
5.97029e-09
1.04838e-06
7.13521e-09
1.05217e-06
8.46377e-09
1.05636e-06
9.50355e-09
1.06154e-06
1.11497e-08
1.06705e-06
1.2e-08
1.07372e-06
1.41301e-08
1.0808e-06
1.50134e-08
1.08905e-06
1.71123e-08
1.09793e-06
1.83754e-08
1.10802e-06
2.03857e-08
1.11872e-06
2.13785e-08
2.36353e-08
1.13061e-06
1.00296e-06
-6.96393e-09
1.0068e-06
-1.3072e-08
1.00981e-06
-1.50524e-08
1.01194e-06
-1.48935e-08
1.01385e-06
-1.49541e-08
1.01559e-06
-1.51334e-08
1.01709e-06
-1.51387e-08
1.01865e-06
-1.58068e-08
1.02033e-06
-1.6736e-08
1.02174e-06
-1.60382e-08
1.02265e-06
-1.32083e-08
1.0233e-06
-9.48641e-09
1.02403e-06
-5.99786e-09
1.02503e-06
-3.03303e-09
1.02642e-06
-7.22161e-10
1.02836e-06
9.48759e-10
1.03083e-06
2.05802e-09
1.03388e-06
2.91771e-09
1.03744e-06
3.57613e-09
1.04166e-06
4.24824e-09
1.04635e-06
4.80533e-09
1.05194e-06
5.56531e-09
1.05789e-06
6.04497e-09
1.06501e-06
7.01405e-09
1.07252e-06
7.50095e-09
1.08119e-06
8.44717e-09
1.09044e-06
9.12384e-09
1.10087e-06
9.95577e-09
1.1118e-06
1.04485e-08
1.12588e-08
1.12417e-06
9.93036e-07
9.79964e-07
9.64912e-07
9.50018e-07
9.35064e-07
9.19931e-07
9.04792e-07
8.88985e-07
8.72249e-07
8.56211e-07
8.43003e-07
8.33516e-07
8.27518e-07
8.24485e-07
8.23763e-07
8.24712e-07
8.2677e-07
8.29688e-07
8.33264e-07
8.37512e-07
8.42317e-07
8.47883e-07
8.53928e-07
8.60942e-07
8.68443e-07
8.7689e-07
8.86014e-07
8.95969e-07
9.06418e-07
9.17677e-07
5.28449e-07
-1.2399e-07
5.77126e-07
-4.86775e-08
6.04805e-07
-2.76789e-08
7.43528e-07
-1.38722e-07
7.19709e-07
2.38184e-08
6.42849e-07
7.686e-08
8.29529e-07
-1.86679e-07
8.86229e-07
-5.67006e-08
7.71781e-07
1.14448e-07
-1.48888e-07
9.20669e-07
7.74648e-07
-1.30858e-07
8.28174e-07
-1.02203e-07
8.70363e-07
-6.98686e-08
8.6885e-07
-1.37209e-07
8.95476e-07
-2.80762e-09
9.18802e-07
5.35344e-08
9.87728e-07
-2.55605e-07
1.0589e-06
-1.27874e-07
1.00871e-06
1.64636e-07
-2.00049e-07
1.05987e-06
8.58329e-07
-1.44225e-07
8.82509e-07
-1.26382e-07
8.93836e-07
-8.11952e-08
8.77408e-07
-1.20782e-07
9.44135e-07
-6.9534e-08
1.02089e-06
-2.32239e-08
9.47813e-07
-1.82525e-07
9.95688e-07
-1.7575e-07
1.10398e-06
5.63491e-08
-2.90149e-07
1.19407e-06
9.11488e-07
-1.4437e-07
9.21997e-07
-1.36891e-07
9.43411e-07
-1.0261e-07
9.44404e-07
-1.21774e-07
9.63824e-07
-8.89547e-08
1.02055e-06
-7.99524e-08
9.99738e-07
-1.6171e-07
9.92458e-07
-1.6847e-07
1.11199e-06
-6.31844e-08
-3.10241e-07
1.13208e-06
9.50322e-07
-1.46065e-07
9.59159e-07
-1.45728e-07
9.65304e-07
-1.08754e-07
9.71328e-07
-1.27799e-07
9.90592e-07
-1.08218e-07
1.01865e-06
-1.08011e-07
1.01355e-06
-1.56606e-07
1.03414e-06
-1.89066e-07
1.09912e-06
-1.28166e-07
-2.93756e-07
1.08264e-06
9.86882e-07
-1.48858e-07
9.8496e-07
-1.43806e-07
9.95194e-07
-1.18988e-07
1.00076e-06
-1.33366e-07
1.01258e-06
-1.20039e-07
1.03356e-06
-1.28984e-07
1.03304e-06
-1.56095e-07
1.03085e-06
-1.86874e-07
1.0765e-06
-1.73813e-07
-2.95252e-07
1.078e-06
1.00928e-06
-1.44713e-07
1.00987e-06
-1.44397e-07
1.0157e-06
-1.24812e-07
1.01733e-06
-1.35001e-07
1.02476e-06
-1.27464e-07
1.03488e-06
-1.39105e-07
1.03968e-06
-1.60899e-07
1.04536e-06
-1.92555e-07
1.0645e-06
-1.92947e-07
-2.79922e-07
1.04917e-06
1.03533e-06
-1.4418e-07
1.03071e-06
-1.39785e-07
1.03299e-06
-1.27092e-07
1.03356e-06
-1.35569e-07
1.03906e-06
-1.32957e-07
1.04425e-06
-1.44303e-07
1.04252e-06
-1.59161e-07
1.04058e-06
-1.90614e-07
1.05121e-06
-2.0358e-07
-2.66355e-07
1.03764e-06
1.05118e-06
-1.37576e-07
1.04661e-06
-1.35213e-07
1.04676e-06
-1.27239e-07
1.04411e-06
-1.32925e-07
1.04399e-06
-1.32831e-07
1.0448e-06
-1.4512e-07
1.04393e-06
-1.58287e-07
1.03925e-06
-1.85935e-07
1.03685e-06
-2.01176e-07
-2.50915e-07
1.02141e-06
1.06765e-06
-1.31991e-07
1.06107e-06
-1.28631e-07
1.05739e-06
-1.23551e-07
1.05307e-06
-1.28609e-07
1.05087e-06
-1.30628e-07
1.04732e-06
-1.4157e-07
1.0419e-06
-1.52868e-07
1.03381e-06
-1.77849e-07
1.02745e-06
-1.94818e-07
-2.32774e-07
1.00931e-06
1.07921e-06
-1.23111e-07
1.07123e-06
-1.20654e-07
1.0655e-06
-1.17821e-07
1.05895e-06
-1.22061e-07
1.05277e-06
-1.24442e-07
1.04669e-06
-1.35494e-07
1.03947e-06
-1.45647e-07
1.02853e-06
-1.66908e-07
1.01655e-06
-1.82839e-07
-2.14047e-07
9.97826e-07
1.08931e-06
-1.13536e-07
1.08004e-06
-1.11381e-07
1.0719e-06
-1.09678e-07
1.06334e-06
-1.13502e-07
1.05542e-06
-1.16526e-07
1.04626e-06
-1.26326e-07
1.03617e-06
-1.35564e-07
1.02298e-06
-1.53713e-07
1.00861e-06
-1.68473e-07
-1.9349e-07
9.88055e-07
1.09705e-06
-1.02263e-07
1.08633e-06
-1.0066e-07
1.07646e-06
-9.98078e-08
1.06627e-06
-1.03314e-07
1.05592e-06
-1.06174e-07
1.04476e-06
-1.1517e-07
1.03267e-06
-1.23467e-07
1.01763e-06
-1.38673e-07
1.00079e-06
-1.51635e-07
-1.72324e-07
9.79622e-07
1.10317e-06
-8.99595e-08
1.0913e-06
-8.87912e-08
1.07993e-06
-8.84378e-08
1.06808e-06
-9.14667e-08
1.0563e-06
-9.43987e-08
1.04323e-06
-1.02098e-07
1.02928e-06
-1.0951e-07
1.01278e-06
-1.22177e-07
9.94528e-07
-1.33383e-07
-1.50171e-07
9.72375e-07
1.10782e-06
-7.66e-08
1.09485e-06
-7.58232e-08
1.08219e-06
-7.5777e-08
1.06916e-06
-7.84337e-08
1.05583e-06
-8.1073e-08
1.04142e-06
-8.76868e-08
1.02605e-06
-9.41396e-08
1.0084e-06
-1.0453e-07
9.88976e-07
-1.13956e-07
-1.27544e-07
9.66349e-07
1.11125e-06
-6.24075e-08
1.09735e-06
-6.19274e-08
1.0837e-06
-6.21304e-08
1.06956e-06
-6.42917e-08
1.05523e-06
-6.67375e-08
1.03969e-06
-7.21532e-08
1.0232e-06
-7.76485e-08
1.00466e-06
-8.59939e-08
9.8444e-07
-9.37311e-08
-1.04425e-07
9.61321e-07
1.11368e-06
-4.75217e-08
1.09902e-06
-4.72644e-08
1.08452e-06
-4.76299e-08
1.06959e-06
-4.93615e-08
1.05436e-06
-5.151e-08
1.03798e-06
-5.57721e-08
1.02061e-06
-6.02801e-08
1.00134e-06
-6.67175e-08
9.80476e-07
-7.2871e-08
-8.08824e-08
9.56933e-07
1.11504e-06
-3.19464e-08
1.09958e-06
-3.18049e-08
1.0843e-06
-3.23471e-08
1.06851e-06
-3.3579e-08
1.05249e-06
-3.54862e-08
1.03517e-06
-3.84531e-08
1.01689e-06
-4.19955e-08
9.96653e-07
-4.64847e-08
9.749e-07
-5.11176e-08
-5.64533e-08
9.5047e-07
1.1063e-06
-1.40741e-08
1.08882e-06
-1.432e-08
1.07151e-06
-1.50417e-08
1.05385e-06
-1.59159e-08
1.03575e-06
-1.73908e-08
1.01636e-06
-1.90596e-08
9.9574e-07
-2.13756e-08
9.73136e-07
-2.38806e-08
9.48736e-07
-2.67181e-08
-2.93027e-08
9.21586e-07
9.03603e-07
8.89283e-07
8.74241e-07
8.58325e-07
8.40934e-07
8.21875e-07
8.00499e-07
7.76618e-07
7.499e-07
7.20598e-07
-9.75793e-08
9.75793e-08
-2.60128e-07
1.62549e-07
-4.58732e-07
1.98604e-07
-6.00131e-07
1.41399e-07
-6.29534e-07
2.94023e-08
-5.78699e-07
-5.08345e-08
-4.5084e-07
-1.27859e-07
-2.98803e-07
-1.52038e-07
-1.42945e-07
-1.55857e-07
2.80454e-09
-1.4575e-07
1.28078e-07
-1.25273e-07
2.28503e-07
-1.00425e-07
3.04934e-07
-7.64311e-08
3.60588e-07
-5.56538e-08
3.99556e-07
-3.89687e-08
4.2589e-07
-2.63334e-08
4.43138e-07
-1.7248e-08
4.54163e-07
-1.10253e-08
4.61111e-07
-6.94786e-09
4.6547e-07
-4.35924e-09
4.68224e-07
-2.75319e-09
4.69993e-07
-1.7692e-09
4.7116e-07
-1.16684e-09
4.71953e-07
-7.93864e-10
4.72512e-07
-5.58423e-10
4.72916e-07
-4.04617e-10
4.7322e-07
-3.03408e-10
4.73449e-07
-2.29496e-10
4.73634e-07
-1.84431e-10
4.73774e-07
-1.40353e-10
4.739e-07
-1.26084e-10
4.73994e-07
-9.3907e-11
4.74091e-07
-9.72513e-11
4.74167e-07
-7.593e-11
4.74253e-07
-8.55023e-11
4.7433e-07
-7.70445e-11
4.74419e-07
-8.89702e-11
4.74513e-07
-9.37719e-11
4.74616e-07
-1.02998e-10
-1.31742e-10
-1.44418e-07
2.41998e-07
-3.26303e-07
3.44433e-07
-5.23988e-07
3.96289e-07
-6.73161e-07
2.90572e-07
-6.89224e-07
4.54646e-08
-6.10851e-07
-1.29207e-07
-4.6031e-07
-2.784e-07
-2.90194e-07
-3.22153e-07
-1.09344e-07
-3.36708e-07
5.41018e-08
-3.09196e-07
1.95307e-07
-2.66478e-07
3.10641e-07
-2.15759e-07
4.02134e-07
-1.67924e-07
4.7348e-07
-1.27e-07
5.28385e-07
-9.38737e-08
5.70115e-07
-6.80637e-08
6.01496e-07
-4.86287e-08
6.24932e-07
-3.44616e-08
6.42405e-07
-2.44203e-08
6.55486e-07
-1.74409e-08
6.65369e-07
-1.26361e-08
6.72927e-07
-9.32658e-09
6.78785e-07
-7.02504e-09
6.83387e-07
-5.39654e-09
6.8705e-07
-4.22098e-09
6.89995e-07
-3.34939e-09
6.92389e-07
-2.69745e-09
6.94343e-07
-2.1834e-09
6.95962e-07
-1.8039e-09
6.97291e-07
-1.46873e-09
6.98417e-07
-1.25264e-09
6.9934e-07
-1.0164e-09
7.0014e-07
-8.97965e-10
7.008e-07
-7.35806e-10
7.01384e-07
-6.68975e-10
7.01871e-07
-5.64811e-10
7.02318e-07
-5.35551e-10
7.02698e-07
-4.73843e-10
7.03062e-07
-4.66649e-10
-4.52693e-10
-2.44412e-07
4.8641e-07
-4.18414e-07
5.18436e-07
-5.4599e-07
5.23864e-07
-6.69225e-07
4.13807e-07
-6.97403e-07
7.36428e-08
-6.13537e-07
-2.13073e-07
-4.60649e-07
-4.31289e-07
-2.76169e-07
-5.06633e-07
-9.09148e-08
-5.21962e-07
7.98316e-08
-4.79942e-07
2.24279e-07
-4.10925e-07
3.37792e-07
-3.29273e-07
4.24129e-07
-2.5426e-07
4.90046e-07
-1.92918e-07
5.41192e-07
-1.4502e-07
5.81281e-07
-1.08153e-07
6.12731e-07
-8.00779e-08
6.37314e-07
-5.90446e-08
6.56474e-07
-4.35803e-08
6.71413e-07
-3.23799e-08
6.83106e-07
-2.4329e-08
6.92316e-07
-1.85372e-08
6.99629e-07
-1.43375e-08
7.05482e-07
-1.12497e-08
7.10206e-07
-8.94511e-09
7.14045e-07
-7.18786e-09
7.17189e-07
-5.84237e-09
7.19772e-07
-4.76548e-09
7.21919e-07
-3.95109e-09
7.23688e-07
-3.2384e-09
7.25185e-07
-2.74971e-09
7.26419e-07
-2.25033e-09
7.27481e-07
-1.95909e-09
7.28359e-07
-1.61455e-09
7.29128e-07
-1.4377e-09
7.29766e-07
-1.20317e-09
7.30345e-07
-1.11434e-09
7.30826e-07
-9.55013e-10
7.31283e-07
-9.23181e-10
-8.38222e-10
-1.76173e-08
5.04027e-07
-1.46899e-07
6.47717e-07
-3.41607e-07
7.18573e-07
-4.63393e-07
5.35593e-07
-4.97336e-07
1.07586e-07
-4.62535e-07
-2.47874e-07
-3.4334e-07
-5.50483e-07
-1.81635e-07
-6.68338e-07
-2.44433e-08
-6.79154e-07
1.3079e-07
-6.35175e-07
2.69741e-07
-5.49876e-07
3.81768e-07
-4.413e-07
4.64831e-07
-3.37323e-07
5.24393e-07
-2.5248e-07
5.67708e-07
-1.88334e-07
6.0046e-07
-1.40905e-07
6.26108e-07
-1.05726e-07
6.46564e-07
-7.95006e-08
6.62972e-07
-5.99885e-08
6.76148e-07
-4.55554e-08
6.86741e-07
-3.49224e-08
6.95284e-07
-2.70799e-08
7.02203e-07
-2.12563e-08
7.07833e-07
-1.68806e-08
7.12441e-07
-1.35522e-08
7.16225e-07
-1.09727e-08
7.19354e-07
-8.97049e-09
7.2194e-07
-7.35198e-09
7.24102e-07
-6.1127e-09
7.25892e-07
-5.02878e-09
7.27409e-07
-4.26713e-09
7.28665e-07
-3.50594e-09
7.29745e-07
-3.0389e-09
7.30641e-07
-2.51029e-09
7.31425e-07
-2.22176e-09
7.32074e-07
-1.853e-09
7.32664e-07
-1.70384e-09
7.33152e-07
-1.44256e-09
7.33614e-07
-1.38535e-09
-1.2262e-09
1.10624e-07
3.93403e-07
-1.39944e-08
7.72336e-07
-1.0096e-07
8.05539e-07
-7.3194e-08
5.07827e-07
-4.57501e-08
8.01418e-08
-1.16036e-08
-2.82021e-07
3.58651e-08
-5.97952e-07
1.1284e-07
-7.45313e-07
1.95991e-07
-7.62305e-07
2.78299e-07
-7.17484e-07
3.60747e-07
-6.32324e-07
4.36235e-07
-5.16788e-07
5.01061e-07
-4.0215e-07
5.53342e-07
-3.04761e-07
5.9264e-07
-2.27632e-07
6.21142e-07
-1.69407e-07
6.42169e-07
-1.26753e-07
6.58405e-07
-9.57369e-08
6.71463e-07
-7.3046e-08
6.82195e-07
-5.62873e-08
6.91082e-07
-4.38099e-08
6.98453e-07
-3.44503e-08
7.04565e-07
-2.73682e-08
7.09634e-07
-2.19495e-08
7.13843e-07
-1.77612e-08
7.17341e-07
-1.44707e-08
7.20257e-07
-1.18872e-08
7.22686e-07
-9.78074e-09
7.24726e-07
-8.15294e-09
7.26424e-07
-6.72631e-09
7.27867e-07
-5.70998e-09
7.29064e-07
-4.70317e-09
7.30096e-07
-4.07059e-09
7.30952e-07
-3.36691e-09
7.31703e-07
-2.97291e-09
7.32326e-07
-2.47553e-09
7.32891e-07
-2.26894e-09
7.33358e-07
-1.90961e-09
7.33801e-07
-1.82829e-09
-1.59682e-09
1.80618e-07
2.12784e-07
1.47557e-07
8.05397e-07
2.88628e-07
6.64468e-07
4.43313e-07
3.53142e-07
5.14702e-07
8.7533e-09
5.33718e-07
-3.01037e-07
5.36387e-07
-6.00621e-07
5.50849e-07
-7.59774e-07
5.54297e-07
-7.65754e-07
5.60397e-07
-7.23584e-07
5.70675e-07
-6.42602e-07
5.73512e-07
-5.19624e-07
5.76891e-07
-4.05529e-07
5.92129e-07
-3.19999e-07
6.1533e-07
-2.50833e-07
6.38033e-07
-1.9211e-07
6.56226e-07
-1.44946e-07
6.69943e-07
-1.09454e-07
6.80528e-07
-8.36308e-08
6.89091e-07
-6.48499e-08
6.96256e-07
-5.09751e-08
7.02336e-07
-4.05303e-08
7.07505e-07
-3.25372e-08
7.11888e-07
-2.63328e-08
7.15595e-07
-2.14679e-08
7.1872e-07
-1.75959e-08
7.21355e-07
-1.45225e-08
7.23569e-07
-1.19943e-08
7.25441e-07
-1.00247e-08
7.27006e-07
-8.29186e-09
7.28342e-07
-7.04585e-09
7.29454e-07
-5.81506e-09
7.30415e-07
-5.03123e-09
7.31213e-07
-4.16568e-09
7.31915e-07
-3.6746e-09
7.32497e-07
-3.05752e-09
7.33026e-07
-2.79755e-09
7.33463e-07
-2.34666e-09
7.33877e-07
-2.24278e-09
-1.94321e-09
-7.22535e-08
2.85038e-07
2.22606e-07
5.10537e-07
4.80849e-07
4.06226e-07
7.64743e-07
6.92479e-08
9.0143e-07
-1.27934e-07
9.10958e-07
-3.10565e-07
8.87763e-07
-5.77427e-07
8.7497e-07
-7.46981e-07
8.35235e-07
-7.26018e-07
7.85705e-07
-6.74054e-07
7.67187e-07
-6.24084e-07
7.52992e-07
-5.05429e-07
7.16589e-07
-3.69126e-07
6.79076e-07
-2.82487e-07
6.61726e-07
-2.33483e-07
6.62355e-07
-1.92739e-07
6.70845e-07
-1.53436e-07
6.80423e-07
-1.19032e-07
6.8875e-07
-9.1958e-08
6.95638e-07
-7.1738e-08
7.01428e-07
-5.67653e-08
7.06398e-07
-4.55003e-08
7.10698e-07
-3.68371e-08
7.14412e-07
-3.00464e-08
7.17604e-07
-2.46599e-08
7.20331e-07
-2.03236e-08
7.22656e-07
-1.68473e-08
7.24626e-07
-1.39636e-08
7.26302e-07
-1.17011e-08
7.27711e-07
-9.70143e-09
7.28919e-07
-8.25383e-09
7.29928e-07
-6.82384e-09
7.30802e-07
-5.90531e-09
7.31531e-07
-4.89393e-09
7.32171e-07
-4.31552e-09
7.32704e-07
-3.5898e-09
7.33188e-07
-3.2814e-09
7.33588e-07
-2.74692e-09
7.33968e-07
-2.62244e-09
-2.26019e-09
7.88029e-07
4.17678e-07
7.98038e-07
5.00528e-07
8.85289e-07
3.18975e-07
1.05306e-06
-9.85201e-08
1.18162e-06
-2.56498e-07
1.19028e-06
-3.1922e-07
1.10064e-06
-4.87793e-07
1.04036e-06
-6.86695e-07
1.01591e-06
-7.01566e-07
9.33846e-07
-5.91994e-07
8.46931e-07
-5.37169e-07
8.23412e-07
-4.8191e-07
8.24115e-07
-3.69829e-07
8.04689e-07
-2.63061e-07
7.71781e-07
-2.00575e-07
7.46036e-07
-1.66994e-07
7.34176e-07
-1.41575e-07
7.32201e-07
-1.17057e-07
7.34832e-07
-9.45893e-08
7.38864e-07
-7.57693e-08
7.42975e-07
-6.08765e-08
7.4678e-07
-4.93053e-08
7.50212e-07
-4.02695e-08
7.53276e-07
-3.31097e-08
7.55983e-07
-2.73676e-08
7.58351e-07
-2.26911e-08
7.60406e-07
-1.89027e-08
7.62172e-07
-1.57292e-08
7.63691e-07
-1.32204e-08
7.64979e-07
-1.0989e-08
7.66089e-07
-9.36422e-09
7.67021e-07
-7.75537e-09
7.67831e-07
-6.71551e-09
7.68508e-07
-5.57082e-09
7.69105e-07
-4.91257e-09
7.69602e-07
-4.08655e-09
7.70054e-07
-3.73343e-09
7.70428e-07
-3.12116e-09
7.70783e-07
-2.97758e-09
-2.5565e-09
1.17476e-06
3.02792e-07
1.24402e-06
4.31272e-07
1.29073e-06
2.72256e-07
1.26656e-06
-7.43436e-08
1.26309e-06
-2.53027e-07
1.29841e-06
-3.54542e-07
1.20248e-06
-3.91863e-07
1.01986e-06
-5.04072e-07
9.40007e-07
-6.21716e-07
8.96284e-07
-5.48271e-07
7.89589e-07
-4.30473e-07
7.04683e-07
-3.97005e-07
7.02193e-07
-3.67338e-07
7.40669e-07
-3.01537e-07
7.68493e-07
-2.28398e-07
7.72615e-07
-1.71116e-07
7.63772e-07
-1.32732e-07
7.54146e-07
-1.07431e-07
7.48872e-07
-8.93149e-08
7.47675e-07
-7.45729e-08
7.48929e-07
-6.21302e-08
7.51245e-07
-5.16213e-08
7.53821e-07
-4.28456e-08
7.56288e-07
-3.55762e-08
7.58513e-07
-2.95926e-08
7.60468e-07
-2.46467e-08
7.6217e-07
-2.06051e-08
7.63638e-07
-1.71965e-08
7.64906e-07
-1.44885e-08
7.65986e-07
-1.20687e-08
7.66921e-07
-1.02997e-08
7.67709e-07
-8.54336e-09
7.68397e-07
-7.40348e-09
7.68974e-07
-6.14738e-09
7.69483e-07
-5.42248e-09
7.69909e-07
-4.51168e-09
7.70296e-07
-4.1209e-09
7.70617e-07
-3.44229e-09
7.70922e-07
-3.28251e-09
-2.81081e-09
1.26135e-06
2.35512e-07
1.3302e-06
3.62426e-07
1.37055e-06
2.31907e-07
1.30573e-06
-9.52736e-09
1.25623e-06
-2.03523e-07
1.25163e-06
-3.4994e-07
1.22124e-06
-3.6147e-07
1.1042e-06
-3.87037e-07
9.53537e-07
-4.71054e-07
8.54592e-07
-4.49326e-07
7.692e-07
-3.45081e-07
6.76209e-07
-3.04013e-07
6.22941e-07
-3.1407e-07
6.31116e-07
-3.09713e-07
6.73795e-07
-2.71077e-07
7.16988e-07
-2.14309e-07
7.44649e-07
-1.60393e-07
7.56561e-07
-1.19343e-07
7.59497e-07
-9.22511e-08
7.59218e-07
-7.42939e-08
7.58614e-07
-6.15264e-08
7.58626e-07
-5.16334e-08
7.59292e-07
-4.35116e-08
7.6038e-07
-3.66638e-08
7.61652e-07
-3.08647e-08
7.62942e-07
-2.59366e-08
7.6416e-07
-2.18231e-08
7.6526e-07
-1.8297e-08
7.66239e-07
-1.54675e-08
7.67087e-07
-1.2917e-08
7.67831e-07
-1.10438e-08
7.68463e-07
-9.17524e-09
7.69019e-07
-7.95865e-09
7.69486e-07
-6.61481e-09
7.69901e-07
-5.83743e-09
7.70248e-07
-4.85863e-09
7.70565e-07
-4.43781e-09
7.70828e-07
-3.70535e-09
7.71078e-07
-3.53252e-09
-3.0193e-09
1.16175e-06
2.05847e-07
1.25656e-06
2.67611e-07
1.30584e-06
1.82636e-07
1.28134e-06
1.49727e-08
1.2379e-06
-1.60085e-07
1.16244e-06
-2.74488e-07
1.12739e-06
-3.26419e-07
1.08712e-06
-3.46764e-07
9.61561e-07
-3.45494e-07
8.49405e-07
-3.37171e-07
8.36743e-07
-3.32419e-07
8.54617e-07
-3.21887e-07
8.34595e-07
-2.94049e-07
7.84327e-07
-2.59445e-07
7.4149e-07
-2.2824e-07
7.24663e-07
-1.97482e-07
7.26233e-07
-1.61963e-07
7.34696e-07
-1.27806e-07
7.43315e-07