/*--------------------------------*- C++ -*----------------------------------*\
| =========                 |                                                 |
| \\      /  F ield         | OpenFOAM: The Open Source CFD Toolbox           |
|  \\    /   O peration     | Version:  2112                                  |
|   \\  /    A nd           | Website:  www.openfoam.com                      |
|    \\/     M anipulation  |                                                 |
\*---------------------------------------------------------------------------*/
FoamFile
{
    version     2.0;
    format      ascii;
    arch        "LSB;label=32;scalar=64";
    class       volVectorField;
    location    "0.13";
    object      U;
}
// * * * * * * * * * * * * * * * * * * * * * * * * * * * * * * * * * * * * * //

dimensions      [0 1 -1 0 0 0 0];

internalField   nonuniform List<vector> 
1880
(
(0.0989789 0.000584378 0)
(0.0985376 0.0011515 0)
(0.0973297 0.00134012 0)
(0.0957944 0.00131714 0)
(0.0942827 0.00131309 0)
(0.092412 0.00133628 0)
(0.090629 0.00136155 0)
(0.0891696 0.00144428 0)
(0.087436 0.00152677 0)
(0.0853621 0.00144406 0)
(0.0835069 0.00118444 0)
(0.0821163 0.000876994 0)
(0.0810219 0.000630174 0)
(0.0801408 0.000435643 0)
(0.0794257 0.000333325 0)
(0.0789046 0.000239122 0)
(0.0783687 0.000280911 0)
(0.0779205 0.000208279 0)
(0.0772822 0.000379454 0)
(0.0767377 0.000243955 0)
(0.0758661 0.000567364 0)
(0.0750849 0.000345796 0)
(0.0738128 0.000855139 0)
(0.0726206 0.00055445 0)
(0.0706374 0.00133442 0)
(0.0687055 0.0010799 0)
(0.0654094 0.00192545 0)
(0.0620747 0.00324476 0)
(0.055102 0.00184872 0)
(0.0511014 0.0121372 0)
(0.0999483 0.000679982 0)
(0.100399 0.00138868 0)
(0.100606 0.00168534 0)
(0.100952 0.00173482 0)
(0.101393 0.00179352 0)
(0.101245 0.00186838 0)
(0.101022 0.00191065 0)
(0.101251 0.00201515 0)
(0.101433 0.00218224 0)
(0.101257 0.00221447 0)
(0.101006 0.00201879 0)
(0.100867 0.00168281 0)
(0.100615 0.00136345 0)
(0.100312 0.00105733 0)
(0.0997984 0.000911488 0)
(0.0995836 0.000704198 0)
(0.0988536 0.000861996 0)
(0.0988866 0.000608918 0)
(0.0975947 0.00117735 0)
(0.0980628 0.000647207 0)
(0.095913 0.00174952 0)
(0.0968479 0.000920605 0)
(0.093747 0.00245067 0)
(0.0948216 0.00170859 0)
(0.0907655 0.00344245 0)
(0.0916187 0.00316231 0)
(0.086394 0.00562779 0)
(0.0859696 0.0056635 0)
(0.081327 0.0109338 0)
(0.0744996 0.0109519 0)
(0.0999485 0.00024181 0)
(0.10031 0.000656779 0)
(0.100431 0.000965388 0)
(0.100813 0.00112581 0)
(0.101394 0.00122883 0)
(0.101381 0.0013228 0)
(0.101286 0.00140424 0)
(0.101687 0.00150924 0)
(0.102092 0.00163642 0)
(0.102155 0.00169595 0)
(0.102145 0.00163611 0)
(0.102217 0.00148948 0)
(0.102136 0.00133809 0)
(0.101901 0.00119669 0)
(0.101474 0.00113814 0)
(0.101205 0.00107579 0)
(0.100622 0.00120396 0)
(0.100489 0.00116088 0)
(0.0995357 0.00159844 0)
(0.0996807 0.00138176 0)
(0.0981567 0.00238623 0)
(0.0985396 0.00180076 0)
(0.0965846 0.00352582 0)
(0.0964857 0.0029246 0)
(0.0950489 0.00478228 0)
(0.0930043 0.00561268 0)
(0.0932786 0.00667565 0)
(0.0883816 0.00994974 0)
(0.0903322 0.0120496 0)
(0.0841895 0.0155452 0)
(0.0999427 0.000226602 0)
(0.100225 0.00062432 0)
(0.100186 0.000941923 0)
(0.100433 0.00114374 0)
(0.100996 0.00127392 0)
(0.100996 0.0013727 0)
(0.100883 0.00145047 0)
(0.101264 0.00153695 0)
(0.101654 0.0016546 0)
(0.101701 0.0017594 0)
(0.101689 0.00179842 0)
(0.101814 0.00175007 0)
(0.101813 0.00167338 0)
(0.101703 0.00156375 0)
(0.101363 0.00153725 0)
(0.101239 0.00146448 0)
(0.100714 0.0016298 0)
(0.100721 0.00158042 0)
(0.0998118 0.00208048 0)
(0.100085 0.00191008 0)
(0.0986107 0.00297492 0)
(0.0992653 0.00249592 0)
(0.0970752 0.00440877 0)
(0.0980646 0.00361449 0)
(0.0952817 0.00650291 0)
(0.0961791 0.00572986 0)
(0.0935239 0.00972097 0)
(0.0933109 0.00948755 0)
(0.0923872 0.0147655 0)
(0.0902076 0.0163004 0)
(0.0999393 0.000144966 0)
(0.100187 0.000404876 0)
(0.10008 0.000631629 0)
(0.100259 0.000816967 0)
(0.1008 0.000957596 0)
(0.100799 0.00105573 0)
(0.100674 0.00112854 0)
(0.101034 0.00120892 0)
(0.101398 0.0013189 0)
(0.101422 0.00144035 0)
(0.101409 0.00153799 0)
(0.101572 0.00158646 0)
(0.101635 0.00160852 0)
(0.101609 0.00160786 0)
(0.101338 0.00165009 0)
(0.101303 0.00168218 0)
(0.10084 0.00185733 0)
(0.100929 0.00194202 0)
(0.10012 0.00237523 0)
(0.100396 0.00244199 0)
(0.0992474 0.00330351 0)
(0.0995779 0.00331243 0)
(0.0983591 0.00464323 0)
(0.0982853 0.00500233 0)
(0.0974994 0.00627937 0)
(0.0966285 0.00806809 0)
(0.0965207 0.00874387 0)
(0.0952069 0.0121729 0)
(0.0954028 0.0141228 0)
(0.0948008 0.0163385 0)
(0.0999379 0.000121753 0)
(0.100176 0.000344897 0)
(0.100036 0.000546568 0)
(0.100168 0.0007307 0)
(0.100678 0.000881894 0)
(0.100667 0.000988698 0)
(0.100534 0.00106725 0)
(0.100879 0.00114947 0)
(0.101223 0.00125926 0)
(0.101232 0.00139139 0)
(0.101214 0.00151883 0)
(0.101396 0.00161303 0)
(0.101495 0.00168041 0)
(0.101534 0.00172711 0)
(0.101325 0.00180088 0)
(0.101376 0.00188237 0)
(0.100978 0.00206796 0)
(0.101166 0.00222613 0)
(0.100429 0.00263254 0)
(0.100821 0.0028295 0)
(0.0997591 0.00361678 0)
(0.100281 0.0037821 0)
(0.0990891 0.00511948 0)
(0.0994716 0.00532452 0)
(0.0985029 0.00721833 0)
(0.0984535 0.00782489 0)
(0.0982389 0.0101491 0)
(0.0973998 0.0116505 0)
(0.0986311 0.0142455 0)
(0.0972368 0.0171272 0)
(0.0999372 9.38608e-05 0)
(0.100164 0.000266105 0)
(0.100003 0.000418247 0)
(0.100106 0.00056787 0)
(0.100594 0.000704632 0)
(0.100574 0.000805993 0)
(0.100438 0.000878309 0)
(0.100779 0.000953201 0)
(0.101119 0.0010585 0)
(0.101129 0.00119765 0)
(0.101119 0.00134864 0)
(0.101322 0.00148709 0)
(0.101456 0.00160489 0)
(0.101543 0.00171389 0)
(0.10139 0.001831 0)
(0.101505 0.001978 0)
(0.101181 0.00217655 0)
(0.10143 0.00241819 0)
(0.100813 0.00278223 0)
(0.101224 0.00313022 0)
(0.100415 0.00374793 0)
(0.100823 0.00424763 0)
(0.100147 0.00510925 0)
(0.100222 0.0060363 0)
(0.100013 0.00691209 0)
(0.0997448 0.00870111 0)
(0.0999593 0.00960542 0)
(0.0998921 0.0119545 0)
(0.100215 0.014084 0)
(0.100868 0.0154296 0)
(0.0999371 7.33568e-05 0)
(0.100158 0.000210003 0)
(0.0999877 0.000330285 0)
(0.100077 0.000456281 0)
(0.100553 0.000582904 0)
(0.100527 0.000683817 0)
(0.100391 0.000756331 0)
(0.100731 0.000828162 0)
(0.101069 0.000929082 0)
(0.101081 0.00106901 0)
(0.10108 0.00123008 0)
(0.101303 0.00139248 0)
(0.101468 0.0015399 0)
(0.101595 0.0016887 0)
(0.101496 0.00183401 0)
(0.101662 0.00202571 0)
(0.101415 0.00223352 0)
(0.101718 0.00252987 0)
(0.101211 0.00286926 0)
(0.101674 0.00329491 0)
(0.101018 0.003842 0)
(0.101492 0.00442893 0)
(0.101003 0.00521443 0)
(0.101194 0.00610611 0)
(0.101225 0.00707377 0)
(0.101049 0.00847362 0)
(0.101728 0.00962671 0)
(0.101451 0.0116169 0)
(0.102683 0.0129954 0)
(0.102778 0.0155543 0)
(0.099937 5.51089e-05 0)
(0.100156 0.000158577 0)
(0.0999808 0.000247715 0)
(0.100063 0.000345955 0)
(0.100533 0.000454368 0)
(0.100505 0.000546628 0)
(0.100371 0.000612687 0)
(0.100714 0.00067617 0)
(0.101057 0.000768699 0)
(0.101076 0.000905676 0)
(0.10109 0.00107223 0)
(0.101332 0.00125246 0)
(0.101529 0.00142396 0)
(0.101689 0.00160628 0)
(0.101644 0.00177679 0)
(0.101848 0.00200599 0)
(0.101683 0.00222239 0)
(0.102016 0.00256157 0)
(0.101637 0.00287361 0)
(0.10211 0.00336661 0)
(0.101645 0.00381245 0)
(0.102111 0.00453082 0)
(0.101873 0.00508534 0)
(0.102082 0.00618548 0)
(0.10234 0.00681064 0)
(0.102372 0.00833565 0)
(0.102992 0.00926183 0)
(0.103392 0.0108921 0)
(0.104073 0.0125754 0)
(0.105065 0.0138485 0)
(0.0999369 3.76442e-05 0)
(0.100156 0.000109175 0)
(0.0999797 0.000168145 0)
(0.100061 0.000238388 0)
(0.10053 0.000326969 0)
(0.100505 0.000409446 0)
(0.100377 0.000469617 0)
(0.100727 0.000525665 0)
(0.101078 0.000609239 0)
(0.101108 0.000739853 0)
(0.101138 0.000906156 0)
(0.101399 0.00109607 0)
(0.101627 0.00128398 0)
(0.101815 0.00149004 0)
(0.101821 0.00168021 0)
(0.102055 0.00193448 0)
(0.101969 0.00215921 0)
(0.102324 0.00251989 0)
(0.102064 0.00281691 0)
(0.102547 0.00333124 0)
(0.102242 0.00372424 0)
(0.102726 0.00446373 0)
(0.102666 0.00492741 0)
(0.102929 0.00600369 0)
(0.103376 0.00654439 0)
(0.103473 0.00793751 0)
(0.104328 0.00870863 0)
(0.104714 0.0103199 0)
(0.105711 0.0113228 0)
(0.106627 0.0131421 0)
(0.0999369 2.00971e-05 0)
(0.100157 5.9369e-05 0)
(0.0999839 8.81772e-05 0)
(0.100069 0.000129685 0)
(0.100543 0.000196116 0)
(0.100526 0.000265918 0)
(0.100406 0.000317424 0)
(0.100765 0.000363098 0)
(0.101128 0.000434514 0)
(0.101171 0.000554836 0)
(0.101218 0.000716287 0)
(0.101498 0.000910218 0)
(0.101757 0.00110969 0)
(0.101969 0.00133366 0)
(0.102023 0.00154048 0)
(0.102278 0.00181212 0)
(0.102268 0.00204384 0)
(0.102633 0.00241374 0)
(0.102488 0.0026967 0)
(0.102968 0.00321448 0)
(0.102813 0.00355642 0)
(0.103305 0.00429897 0)
(0.103393 0.0046663 0)
(0.103727 0.00571443 0)
(0.10426 0.00615735 0)
(0.104541 0.00739379 0)
(0.105355 0.00813523 0)
(0.106037 0.00938267 0)
(0.106911 0.0104613 0)
(0.108056 0.0116852 0)
(0.0999368 1.60387e-06 0)
(0.10016 7.09872e-06 0)
(0.0999929 4.6808e-06 0)
(0.100085 1.67633e-05 0)
(0.100569 6.1869e-05 0)
(0.100563 0.000120405 0)
(0.100455 0.000165014 0)
(0.100826 0.000201906 0)
(0.101204 0.000261332 0)
(0.101262 0.000369438 0)
(0.101329 0.00052219 0)
(0.101628 0.000714734 0)
(0.101916 0.000920201 0)
(0.102148 0.00115446 0)
(0.102245 0.00137286 0)
(0.102514 0.00165246 0)
(0.102572 0.00188876 0)
(0.102939 0.00225398 0)
(0.102898 0.00252617 0)
(0.103369 0.00302362 0)
(0.103346 0.00333102 0)
(0.103843 0.00403534 0)
(0.104054 0.00434316 0)
(0.104442 0.00531211 0)
(0.105057 0.00568265 0)
(0.105437 0.00678485 0)
(0.106311 0.00738538 0)
(0.107063 0.00854275 0)
(0.108016 0.00927312 0)
(0.109183 0.0105329 0)
(0.0999368 -1.95384e-05 0)
(0.100166 -5.31278e-05 0)
(0.100009 -9.22164e-05 0)
(0.100116 -0.000115635 0)
(0.100618 -9.9059e-05 0)
(0.100627 -5.88534e-05 0)
(0.100533 -2.77239e-05 0)
(0.100917 -5.23305e-06 0)
(0.101311 3.68157e-05 0)
(0.101385 0.000127636 0)
(0.101469 0.000270375 0)
(0.101785 0.000463441 0)
(0.102098 0.00067963 0)
(0.102345 0.00092801 0)
(0.102478 0.00116188 0)
(0.102755 0.00144863 0)
(0.102873 0.00169095 0)
(0.103236 0.00204481 0)
(0.103286 0.00230781 0)
(0.103745 0.00277168 0)
(0.103832 0.0030515 0)
(0.104334 0.00369614 0)
(0.104639 0.00396099 0)
(0.105086 0.00482412 0)
(0.105737 0.00514907 0)
(0.106233 0.00608031 0)
(0.107095 0.00662334 0)
(0.107954 0.00755647 0)
(0.108911 0.00820257 0)
(0.110114 0.0091963 0)
(0.0999368 -4.30876e-05 0)
(0.100173 -0.000117912 0)
(0.100028 -0.000192794 0)
(0.100153 -0.000245178 0)
(0.100675 -0.00024751 0)
(0.100704 -0.000215879 0)
(0.100626 -0.000189466 0)
(0.10103 -0.000174247 0)
(0.101445 -0.000143577 0)
(0.101542 -6.57023e-05 0)
(0.101652 6.91658e-05 0)
(0.101988 0.000260231 0)
(0.102324 0.000478383 0)
(0.10258 0.000727329 0)
(0.102737 0.000963185 0)
(0.103013 0.00124254 0)
(0.103174 0.00148039 0)
(0.103526 0.00181009 0)
(0.103649 0.00205858 0)
(0.104092 0.00247589 0)
(0.104271 0.00272995 0)
(0.104773 0.00329876 0)
(0.105152 0.00352966 0)
(0.105644 0.00427622 0)
(0.106324 0.00455506 0)
(0.106899 0.00534052 0)
(0.107769 0.00578847 0)
(0.108674 0.00658398 0)
(0.109657 0.00706383 0)
(0.110859 0.0079263 0)
(0.0999375 -7.7629e-05 0)
(0.100188 -0.000215809 0)
(0.100071 -0.000349315 0)
(0.100231 -0.000446866 0)
(0.100784 -0.000477695 0)
(0.100834 -0.000465196 0)
(0.100774 -0.000454564 0)
(0.101197 -0.000455519 0)
(0.101635 -0.000443858 0)
(0.101755 -0.000384862 0)
(0.101881 -0.000261676 0)
(0.102221 -7.06336e-05 0)
(0.102561 0.000160902 0)
(0.102811 0.000430362 0)
(0.102983 0.000690465 0)
(0.103252 0.000979919 0)
(0.103449 0.00122519 0)
(0.103789 0.00153525 0)
(0.103973 0.00177177 0)
(0.104399 0.00213974 0)
(0.104653 0.00236933 0)
(0.105154 0.00285566 0)
(0.105589 0.00305728 0)
(0.106121 0.00368172 0)
(0.106814 0.00392167 0)
(0.107455 0.00456043 0)
(0.108321 0.0049365 0)
(0.109259 0.00557449 0)
(0.110255 0.00595483 0)
(0.111448 0.00664361 0)
(0.0999386 -0.000105854 0)
(0.100202 -0.000290711 0)
(0.100119 -0.000457833 0)
(0.100331 -0.00056851 0)
(0.100923 -0.000605825 0)
(0.100994 -0.000601213 0)
(0.100955 -0.000596287 0)
(0.101406 -0.000605088 0)
(0.101877 -0.000608092 0)
(0.102027 -0.000562657 0)
(0.10218 -0.000441653 0)
(0.102537 -0.000242174 0)
(0.102889 2.64587e-06 0)
(0.103133 0.000273729 0)
(0.1033 0.000523721 0)
(0.10354 0.000787102 0)
(0.103743 0.00100936 0)
(0.104053 0.00127587 0)
(0.104273 0.00148304 0)
(0.104676 0.00178916 0)
(0.104984 0.00198612 0)
(0.105479 0.00238426 0)
(0.105956 0.00255361 0)
(0.106515 0.00305803 0)
(0.107216 0.00325537 0)
(0.107904 0.00376219 0)
(0.108767 0.00406078 0)
(0.109718 0.00456605 0)
(0.110726 0.00484708 0)
(0.111899 0.00539108 0)
(0.0999421 -0.000195293 0)
(0.10024 -0.000532244 0)
(0.10023 -0.000800506 0)
(0.100515 -0.000940522 0)
(0.101135 -0.000985751 0)
(0.101216 -0.000999287 0)
(0.1012 -0.00101064 0)
(0.101685 -0.00103496 0)
(0.1022 -0.00106203 0)
(0.102393 -0.00103198 0)
(0.102567 -0.000895226 0)
(0.102911 -0.000654418 0)
(0.103222 -0.000364118 0)
(0.103407 -5.98441e-05 0)
(0.103536 0.000223615 0)
(0.103744 0.000503136 0)
(0.103954 0.000731843 0)
(0.104248 0.000973698 0)
(0.104502 0.00116128 0)
(0.104892 0.00141028 0)
(0.105245 0.00157621 0)
(0.105736 0.00188652 0)
(0.106245 0.00202372 0)
(0.106826 0.00241185 0)
(0.10753 0.0025656 0)
(0.108251 0.00295088 0)
(0.109112 0.00317548 0)
(0.110064 0.00355658 0)
(0.111084 0.00375453 0)
(0.112229 0.00416266 0)
(0.0999477 -0.000218927 0)
(0.100328 -0.00058961 0)
(0.100482 -0.000862075 0)
(0.100906 -0.000976929 0)
(0.101549 -0.00101708 0)
(0.101625 -0.00104806 0)
(0.101636 -0.0010796 0)
(0.102152 -0.00113465 0)
(0.102691 -0.00118941 0)
(0.102912 -0.00114636 0)
(0.103102 -0.00095801 0)
(0.103421 -0.000671892 0)
(0.103675 -0.000367086 0)
(0.103798 -7.62752e-05 0)
(0.103877 0.000176041 0)
(0.10402 0.000395768 0)
(0.104185 0.00056771 0)
(0.104429 0.00073603 0)
(0.104679 0.000873359 0)
(0.105045 0.00104181 0)
(0.105419 0.00116612 0)
(0.105907 0.00137964 0)
(0.106435 0.00147987 0)
(0.107034 0.00175432 0)
(0.107739 0.00186036 0)
(0.108489 0.00213185 0)
(0.109345 0.002287 0)
(0.110298 0.00255154 0)
(0.11133 0.00267619 0)
(0.112441 0.00295967 0)
(0.0999476 -0.000664523 0)
(0.100418 -0.00134345 0)
(0.100659 -0.00161516 0)
(0.101052 -0.00163368 0)
(0.101564 -0.0016506 0)
(0.101515 -0.00168402 0)
(0.101413 -0.00169184 0)
(0.101775 -0.00175821 0)
(0.10212 -0.00187066 0)
(0.102137 -0.00183406 0)
(0.10213 -0.00155606 0)
(0.102277 -0.0011409 0)
(0.102421 -0.00072089 0)
(0.102493 -0.000348478 0)
(0.102565 -5.37235e-05 0)
(0.102735 0.000167771 0)
(0.102952 0.000321294 0)
(0.103256 0.000443625 0)
(0.10355 0.000540452 0)
(0.103987 0.000639419 0)
(0.104369 0.000723177 0)
(0.104962 0.000840471 0)
(0.105446 0.000909823 0)
(0.1062 0.00106279 0)
(0.106816 0.0011337 0)
(0.107751 0.00128314 0)
(0.108501 0.00138453 0)
(0.109639 0.0015251 0)
(0.110558 0.0015983 0)
(0.111847 0.00174808 0)
(0.0989784 -0.000580415 0)
(0.0985582 -0.00113966 0)
(0.0973883 -0.00132062 0)
(0.0959053 -0.0012876 0)
(0.0944733 -0.00127106 0)
(0.0927125 -0.00128293 0)
(0.0910604 -0.00129659 0)
(0.0897532 -0.00136308 0)
(0.0882128 -0.00142643 0)
(0.0863728 -0.00132687 0)
(0.0847923 -0.00104901 0)
(0.0837263 -0.000725274 0)
(0.0830204 -0.000453251 0)
(0.0825703 -0.000242496 0)
(0.0823727 -8.50049e-05 0)
(0.0824009 2.70114e-05 0)
(0.0825618 9.59569e-05 0)
(0.0828281 0.0001451 0)
(0.0831381 0.000179548 0)
(0.0835565 0.000213595 0)
(0.0839701 0.000242219 0)
(0.0845451 0.000276 0)
(0.0850501 0.000303952 0)
(0.0857945 0.000344844 0)
(0.0864072 0.000372032 0)
(0.0873335 0.000413706 0)
(0.088054 0.00044825 0)
(0.0891852 0.000478459 0)
(0.0900095 0.00050858 0)
(0.0913163 0.000530455 0)
(0.0308703 0.00158318 0)
(0.075031 0.0335916 0)
(0.044576 0.0223576 0)
(0.0864909 0.0266393 1.07045e-21)
(0.0790851 0.0363568 9.8368e-22)
(0.0818718 0.0434534 0)
(0.0691521 0.0242627 3.56146e-22)
(0.136657 0.0565159 3.90634e-22)
(0.0781476 0.0419807 7.58574e-22)
(0.126961 0.0405249 0)
(0.0793208 0.0247503 0)
(0.0770751 0.028022 0)
(0.0934674 0.036815 0)
(0.0965647 0.03101 0)
(0.0950318 0.0502663 0)
(0.105443 0.0592277 2.15053e-22)
(0.112384 0.0226329 9.50298e-23)
(0.127638 0.0562325 3.64595e-23)
(0.131051 0.0778361 -6.04689e-22)
(0.133147 0.0499277 -5.30207e-22)
(0.0853059 0.0233039 0)
(0.0877934 0.0246969 0)
(0.0954316 0.034551 0)
(0.0980896 0.029118 0)
(0.0951298 0.0346579 0)
(0.118862 0.0524407 -2.15102e-22)
(0.122448 0.0311823 -9.50348e-23)
(0.111034 0.0245929 -3.64591e-23)
(0.133948 0.0723838 3.18277e-22)
(0.156832 0.0422058 5.30314e-22)
(0.0915761 0.0222722 -5.20479e-22)
(0.0930438 0.0259453 0)
(0.0982183 0.0304372 -4.17838e-22)
(0.104991 0.0317443 -3.65025e-22)
(0.10348 0.0349002 -3.00783e-22)
(0.114202 0.0412112 0)
(0.127457 0.0369249 0)
(0.116112 0.03491 3.46027e-23)
(0.133767 0.0517807 1.9825e-22)
(0.156193 0.0299889 3.97715e-22)
(0.0948681 0.0230668 5.20482e-22)
(0.0976782 0.0220663 0)
(0.102049 0.0285413 4.1784e-22)
(0.105597 0.0276675 3.65025e-22)
(0.108732 0.031418 3.00784e-22)
(0.116289 0.0343367 0)
(0.12398 0.0301144 0)
(0.123512 0.0262046 -3.46029e-23)
(0.136129 0.0423744 -1.98254e-22)
(0.149238 0.0278158 -3.97726e-22)
(0.0991026 0.0198262 0)
(0.101167 0.0224557 -4.01256e-22)
(0.104268 0.026162 0)
(0.109254 0.0262249 -2.97762e-22)
(0.112018 0.0286631 0)
(0.117791 0.030579 0)
(0.125558 0.0307011 0)
(0.126141 0.0279597 -4.64423e-23)
(0.133374 0.0316308 0)
(0.145944 0.0222729 0)
(0.101475 0.0200621 3.99522e-22)
(0.103628 0.0197266 7.70014e-22)
(0.107241 0.0233191 3.25188e-22)
(0.111018 0.0234913 2.97763e-22)
(0.114192 0.0257422 0)
(0.119007 0.0256666 -1.396e-22)
(0.124914 0.0247755 0)
(0.128601 0.0228353 4.64425e-23)
(0.134583 0.0261789 0)
(0.141544 0.0176429 0)
(0.104167 0.0172599 -3.99523e-22)
(0.106394 0.0188555 -3.68757e-22)
(0.109202 0.0212682 -3.25189e-22)
(0.112691 0.0212932 0)
(0.116261 0.0226932 0)
(0.120382 0.0232045 1.396e-22)
(0.125383 0.0231798 0)
(0.128481 0.0208456 0)
(0.133447 0.0209468 0)
(0.139166 0.0160652 0)
(0.106179 0.0164586 0)
(0.10799 0.0168714 -3.17636e-22)
(0.110963 0.0186538 0)
(0.114228 0.0189378 -2.3397e-22)
(0.117294 0.0200508 0)
(0.120906 0.0194959 0)
(0.125381 0.0193145 -5.01905e-23)
(0.128931 0.0173555 2.38329e-23)
(0.132542 0.0171347 0)
(0.136486 0.0122555 1.77474e-22)
(0.107887 0.0143914 0)
(0.109786 0.0153185 3.17637e-22)
(0.112445 0.0166522 0)
(0.115153 0.0168121 2.3397e-22)
(0.118369 0.0173844 0)
(0.121649 0.0172856 0)
(0.125262 0.0170039 5.01906e-23)
(0.128309 0.0151415 -2.38329e-23)
(0.131652 0.014194 0)
(0.134752 0.0109806 -1.77475e-22)
(0.109333 0.0130298 1.52048e-22)
(0.110993 0.0136039 0)
(0.113461 0.0145134 0)
(0.116102 0.014637 1.04511e-22)
(0.118909 0.0151513 0)
(0.121829 0.0145583 0)
(0.125079 0.0142513 0)
(0.127908 0.0125759 -1.05641e-24)
(0.130553 0.0115835 0)
(0.133032 0.00858849 0)
(0.110469 0.0113703 -7.52243e-24)
(0.112081 0.0119428 0)
(0.114396 0.0126348 1.18401e-22)
(0.116681 0.0127328 -4.33399e-24)
(0.11935 0.0129354 0)
(0.122053 0.012529 0)
(0.124778 0.0121174 3.05181e-23)
(0.127251 0.0106722 1.05641e-24)
(0.129648 0.00959455 -2.2355e-23)
(0.131693 0.00733194 -4.91858e-23)
(0.111406 0.0098991 -6.19461e-24)
(0.112929 0.0103398 0)
(0.115008 0.0108316 -4.59187e-24)
(0.117186 0.0108275 -3.29793e-24)
(0.119584 0.0110114 7.75294e-23)
(0.122001 0.0104546 -5.58271e-23)
(0.124456 0.0100291 2.43812e-24)
(0.12667 0.00876292 9.06606e-24)
(0.128725 0.00775943 7.28715e-24)
(0.130497 0.0057824 9.83162e-24)
(0.112142 0.00842047 -1.38332e-22)
(0.113597 0.00878207 0)
(0.115535 0.00913194 -1.13809e-22)
(0.117509 0.00913263 -9.68793e-23)
(0.119715 0.00915925 -7.75295e-23)
(0.121941 0.00869885 1.12197e-22)
(0.124103 0.00825343 -3.29563e-23)
(0.126087 0.00718125 -9.06607e-24)
(0.127935 0.00626356 1.50679e-23)
(0.129498 0.00467487 3.93544e-23)
(0.112718 0.00701276 0)
(0.114127 0.00728864 0)
(0.115894 0.0075415 0)
(0.117744 0.00748678 0)
(0.119762 0.00748925 0)
(0.121784 0.00702864 -5.63698e-23)
(0.123756 0.00659857 0)
(0.125559 0.00568903 0)
(0.127222 0.00488166 0)
(0.128641 0.00355973 0)
(0.113157 0.00564793 0)
(0.114518 0.00585517 0)
(0.11617 0.006021 0)
(0.117887 0.00597138 0)
(0.119751 0.00591205 0)
(0.121614 0.00551861 -2.91563e-23)
(0.123425 0.00511835 0)
(0.125084 0.00436585 0)
(0.126616 0.00367859 0)
(0.127922 0.00261923 0)
(0.113484 0.00432929 0)
(0.114799 0.00447256 0)
(0.116365 0.00457402 5.18391e-23)
(0.117956 0.00450925 0)
(0.119708 0.00442994 3.79052e-23)
(0.121407 0.00408401 2.91563e-23)
(0.123121 0.00372952 0)
(0.124642 0.00312052 1.1945e-23)
(0.126087 0.00255213 0)
(0.127281 0.00172059 0)
(0.113707 0.0030547 0)
(0.11492 0.00314516 0)
(0.116452 0.00319394 -5.18391e-23)
(0.117862 0.00312723 0)
(0.119558 0.00302732 -3.79052e-23)
(0.12103 0.00274806 0)
(0.122713 0.00244619 0)
(0.124001 0.00196852 -1.19451e-23)
(0.125413 0.00151579 0)
(0.126351 0.000902125 0)
(0.112989 0.00177912 -1.52377e-23)
(0.113889 0.00181575 -1.41199e-23)
(0.115285 0.0017997 -1.28134e-23)
(0.116272 0.00173559 0)
(0.11784 0.00161334 -9.59895e-24)
(0.118789 0.00141617 0)
(0.120363 0.00116824 -5.67777e-24)
(0.121028 0.000841917 0)
(0.12232 0.000499244 -1.35398e-24)
(0.122473 0.000104354 8.6255e-25)
(0.0922711 0.000512217 1.52361e-23)
(0.0930717 0.000477386 1.41182e-23)
(0.0940951 0.000411618 1.28118e-23)
(0.0948107 0.000342887 0)
(0.0958036 0.000225373 9.59764e-24)
(0.0962475 0.000120141 0)
(0.0970156 -3.11624e-05 5.6769e-24)
(0.0969229 -0.000188977 0)
(0.0971503 -0.000367341 1.35375e-24)
(0.0962253 -0.000528593 -8.62393e-25)
(-0.00678108 -0.00295778 0)
(-0.0204441 0.00445812 0)
(-0.0522072 0.00800916 0)
(-0.0798167 0.00757874 0)
(-0.0885266 0.00288888 0)
(-0.0866064 -0.00193288 0)
(-0.0722908 -0.00465336 0)
(-0.0522623 -0.00662619 0)
(-0.0304638 -0.00630684 0)
(-0.00922527 -0.0059858 0)
(0.0098588 -0.00493781 0)
(0.0254807 -0.00371978 0)
(0.0378004 -0.00257467 0)
(0.046971 -0.00162837 0)
(0.0535264 -0.000920275 0)
(0.0580344 -0.000437493 0)
(0.0610274 -0.000139165 0)
(0.0629562 2.63934e-05 0)
(0.0641735 0.000106498 0)
(0.0649342 0.000135722 0)
(0.0654101 0.000137559 0)
(0.0657114 0.000126588 0)
(0.0659067 0.000111019 0)
(0.0660372 9.49777e-05 0)
(0.0661272 8.02388e-05 0)
(0.0661912 6.73936e-05 0)
(0.0662384 5.64589e-05 0)
(0.0662738 4.73318e-05 0)
(0.0663016 3.95813e-05 0)
(0.0663234 3.32608e-05 0)
(0.0663408 2.76184e-05 0)
(0.0663567 2.32945e-05 0)
(0.0663672 1.89339e-05 0)
(0.0663829 1.59142e-05 0)
(0.0663874 1.24748e-05 0)
(0.0664076 1.00071e-05 0)
(0.0664071 7.52108e-06 0)
(0.0664344 4.93173e-06 0)
(0.0664308 3.51885e-06 0)
(0.0664649 -1.92675e-07 0)
(-0.00627958 0.0225922 0)
(-0.0335162 0.0293618 0)
(-0.058185 0.0330367 0)
(-0.0925864 0.0217626 0)
(-0.0967262 0.00332329 0)
(-0.0945158 -0.00778905 0)
(-0.0732704 -0.0203114 0)
(-0.0536408 -0.0232478 0)
(-0.0268432 -0.0244788 0)
(-0.00343372 -0.0228513 0)
(0.018114 -0.0198833 0)
(0.035877 -0.016186 0)
(0.0502743 -0.0125691 0)
(0.0616198 -0.00939602 0)
(0.0704302 -0.00680207 0)
(0.0771723 -0.00478926 0)
(0.0822599 -0.00329684 0)
(0.086059 -0.00223473 0)
(0.0888827 -0.00150469 0)
(0.0909849 -0.00101663 0)
(0.0925618 -0.000696032 0)
(0.0937586 -0.000486726 0)
(0.0946795 -0.000349308 0)
(0.0953982 -0.000257569 0)
(0.0959666 -0.000194897 0)
(0.0964216 -0.000150654 0)
(0.0967892 -0.000118998 0)
(0.0970898 -9.47167e-05 0)
(0.0973353 -7.76849e-05 0)
(0.0975414 -6.23073e-05 0)
(0.097707 -5.3683e-05 0)
(0.0978553 -4.27394e-05 0)
(0.0979648 -3.90057e-05 0)
(0.0980792 -3.15882e-05 0)
(0.0981478 -3.00467e-05 0)
(0.098244 -2.58207e-05 0)
(0.0982821 -2.56987e-05 0)
(0.0983709 -2.40512e-05 0)
(0.0983862 -2.44448e-05 0)
(0.0984739 -2.63489e-05 0)
(-0.0227705 0.0276265 0)
(-0.0474516 0.0371292 0)
(-0.0680386 0.0435457 0)
(-0.0895942 0.0341215 0)
(-0.0991608 0.00526909 0)
(-0.0938241 -0.0182349 0)
(-0.0746816 -0.0351287 0)
(-0.0518184 -0.0411593 0)
(-0.0249631 -0.0428882 0)
(-0.000238972 -0.0390956 0)
(0.0220285 -0.0335344 0)
(0.039924 -0.0271011 0)
(0.0537403 -0.0211432 0)
(0.0642697 -0.0161183 0)
(0.0724083 -0.0120709 0)
(0.0787798 -0.00890424 0)
(0.083779 -0.00649278 0)
(0.0876844 -0.00470634 0)
(0.0907216 -0.00341476 0)
(0.0930814 -0.00249639 0)
(0.0949204 -0.00184829 0)
(0.0963623 -0.00139029 0)
(0.0975016 -0.00106371 0)
(0.0984098 -0.000827251 0)
(0.0991394 -0.000653147 0)
(0.0997309 -0.00052195 0)
(0.100213 -0.000422487 0)
(0.10061 -0.000343428 0)
(0.100935 -0.000284229 0)
(0.10121 -0.000232276 0)
(0.101429 -0.000197505 0)
(0.101628 -0.000161045 0)
(0.101774 -0.000140943 0)
(0.101925 -0.000115886 0)
(0.102018 -0.000103911 0)
(0.102141 -8.72715e-05 0)
(0.102195 -8.14412e-05 0)
(0.102305 -7.06245e-05 0)
(0.102328 -6.87078e-05 0)
(0.102434 -6.40199e-05 0)
(0.00110049 0.0660561 0)
(-0.00571528 0.0692616 0)
(-0.0350803 0.0637784 0)
(-0.0647427 0.0491382 0)
(-0.0674343 0.00838522 0)
(-0.0695809 -0.0264424 0)
(-0.0567999 -0.0535835 0)
(-0.0365151 -0.0622239 0)
(-0.0143081 -0.0628928 0)
(0.00753811 -0.0577525 0)
(0.0283806 -0.0490847 0)
(0.0460919 -0.0389479 0)
(0.0597357 -0.0297683 0)
(0.0695997 -0.0224653 0)
(0.0766785 -0.0169145 0)
(0.0819331 -0.0127063 0)
(0.0859942 -0.00950558 0)
(0.0892101 -0.00708906 0)
(0.0917794 -0.00529202 0)
(0.0938363 -0.00397437 0)
(0.095485 -0.00301556 0)
(0.0968104 -0.00231752 0)
(0.0978802 -0.00180547 0)
(0.0987485 -0.00142492 0)
(0.0994565 -0.0011382 0)
(0.100038 -0.000917819 0)
(0.100515 -0.000747945 0)
(0.100912 -0.000611368 0)
(0.101238 -0.000507423 0)
(0.101516 -0.000416609 0)
(0.101739 -0.000353426 0)
(0.101941 -0.000289844 0)
(0.10209 -0.000251544 0)
(0.102243 -0.000207575 0)
(0.102339 -0.000184067 0)
(0.102464 -0.000153691 0)
(0.102519 -0.000141651 0)
(0.10263 -0.000120462 0)
(0.102654 -0.000115926 0)
(0.10276 -0.000103631 0)
(0.0160505 0.037928 0)
(0.0137825 0.0572499 0)
(-0.0173081 0.075621 0)
(-0.0134054 0.0534806 0)
(-0.007816 0.0113156 0)
(-0.00457437 -0.0258776 0)
(0.00183445 -0.0600236 0)
(0.00931072 -0.0739628 0)
(0.0218089 -0.0746931 0)
(0.032676 -0.0701293 0)
(0.0442897 -0.061363 0)
(0.0554334 -0.0496006 0)
(0.0654805 -0.0378914 0)
(0.0739386 -0.0281862 0)
(0.080445 -0.0208778 0)
(0.0851553 -0.0155728 0)
(0.0885621 -0.0117172 0)
(0.0911317 -0.00887272 0)
(0.0931639 -0.0067543 0)
(0.09482 -0.00517423 0)
(0.0961865 -0.00399728 0)
(0.0973178 -0.00311958 0)
(0.0982548 -0.00246139 0)
(0.0990312 -0.00196275 0)
(0.0996747 -0.00158088 0)
(0.10021 -0.00128327 0)
(0.100653 -0.00105119 0)
(0.101025 -0.000862951 0)
(0.101333 -0.000718212 0)
(0.101596 -0.000591618 0)
(0.101808 -0.000501983 0)
(0.102 -0.000412955 0)
(0.102142 -0.000357544 0)
(0.102289 -0.000295542 0)
(0.10238 -0.000261144 0)
(0.1025 -0.000217563 0)
(0.102553 -0.000199628 0)
(0.102659 -0.000168389 0)
(0.102683 -0.000161382 0)
(0.102784 -0.000141692 0)
(0.0305228 0.03668 0)
(0.0181918 0.0966165 0)
(0.0244455 0.0870071 0)
(0.0527442 0.0509658 0)
(0.0689728 0.00549642 0)
(0.0743376 -0.0299915 0)
(0.0782222 -0.0605991 0)
(0.0764475 -0.0763972 0)
(0.0768925 -0.0779155 0)
(0.0772592 -0.0728733 0)
(0.0786628 -0.064109 0)
(0.0795506 -0.0528945 0)
(0.0795686 -0.0420909 0)
(0.0810479 -0.0326183 0)
(0.0842229 -0.0246377 0)
(0.0877502 -0.0183268 0)
(0.0907019 -0.0136412 0)
(0.0929218 -0.0102705 0)
(0.0945941 -0.00784713 0)
(0.0959172 -0.00607786 0)
(0.0970109 -0.00476364 0)
(0.0979347 -0.00377284 0)
(0.0987195 -0.00301642 0)
(0.0993854 -0.00243195 0)
(0.0999484 -0.00197609 0)
(0.100424 -0.00161515 0)
(0.100823 -0.00132998 0)
(0.101161 -0.00109635 0)
(0.101443 -0.000914997 0)
(0.101685 -0.000755811 0)
(0.101881 -0.000641798 0)
(0.102059 -0.000529138 0)
(0.102191 -0.000457771 0)
(0.102328 -0.0003788 0)
(0.102414 -0.000334207 0)
(0.102525 -0.00027813 0)
(0.102576 -0.000254606 0)
(0.102674 -0.000213835 0)
(0.102697 -0.000204456 0)
(0.102791 -0.000177697 0)
(-0.0499061 0.00950248 0)
(0.0275899 0.0638361 0)
(0.037395 0.0503583 0)
(0.0928853 0.0229615 0)
(0.119504 -0.00313769 0)
(0.129498 -0.0272307 0)
(0.129309 -0.0560675 0)
(0.124563 -0.0733894 0)
(0.120183 -0.0751719 0)
(0.112226 -0.0728949 0)
(0.106797 -0.0651624 0)
(0.106418 -0.0507443 0)
(0.102928 -0.0383678 0)
(0.0967726 -0.030933 0)
(0.0928358 -0.0254158 0)
(0.0921135 -0.0201539 0)
(0.0931337 -0.0154484 0)
(0.0945711 -0.011722 0)
(0.0958688 -0.00896758 0)
(0.0969349 -0.00696241 0)
(0.0978176 -0.00548336 0)
(0.0985686 -0.00436973 0)
(0.0992168 -0.00351603 0)
(0.0997772 -0.00285169 0)
(0.100259 -0.0023293 0)
(0.100672 -0.00191237 0)
(0.101024 -0.0015806 0)
(0.101324 -0.00130709 0)
(0.101575 -0.00109348 0)
(0.101793 -0.000905357 0)
(0.10197 -0.000769613 0)
(0.102131 -0.000635673 0)
(0.102251 -0.000549934 0)
(0.102376 -0.000455501 0)
(0.102454 -0.000401648 0)
(0.102556 -0.000334098 0)
(0.102602 -0.000305453 0)
(0.102693 -0.00025588 0)
(0.102713 -0.000244322 0)
(0.1028 -0.000210983 0)
(0.111112 0.0452255 0)
(0.104726 0.0421305 0)
(0.103954 0.0273785 0)
(0.131162 -0.0111041 0)
(0.148919 -0.0239555 0)
(0.162287 -0.0340251 0)
(0.158329 -0.0583243 0)
(0.140199 -0.0749166 0)
(0.137518 -0.0687653 0)
(0.132282 -0.0610886 0)
(0.115582 -0.0604755 0)
(0.108389 -0.0518634 0)
(0.110056 -0.0366557 0)
(0.109275 -0.0258381 0)
(0.104831 -0.0210273 0)
(0.100508 -0.0181474 0)
(0.0981393 -0.0150784 0)
(0.0974688 -0.0119712 0)
(0.0976841 -0.00933567 0)
(0.0982104 -0.00731699 0)
(0.0987841 -0.00582418 0)
(0.0993221 -0.00470691 0)
(0.0998082 -0.00384502 0)
(0.100243 -0.0031615 0)
(0.100629 -0.00261122 0)
(0.100967 -0.00216208 0)
(0.101261 -0.00179828 0)
(0.101516 -0.00149407 0)
(0.101732 -0.00125408 0)
(0.101921 -0.00104116 0)
(0.102076 -0.000886446 0)
(0.102217 -0.000733496 0)
(0.102323 -0.000634859 0)
(0.102434 -0.000526354 0)
(0.102503 -0.000464063 0)
(0.102594 -0.000385973 0)
(0.102635 -0.000352617 0)
(0.102715 -0.000294902 0)
(0.102733 -0.000281334 0)
(0.102811 -0.000241853 0)
(0.148358 0.0402261 0)
(0.160336 0.0533648 0)
(0.170884 0.0353863 0)
(0.175544 -0.00887908 0)
(0.16132 -0.026749 0)
(0.172191 -0.0286877 0)
(0.177554 -0.0368824 0)
(0.14696 -0.0601273 0)
(0.125551 -0.0712903 0)
(0.125268 -0.0577597 0)
(0.113075 -0.0472154 0)
(0.0957646 -0.0448817 0)
(0.091363 -0.0379481 0)
(0.0960658 -0.0275688 0)
(0.101292 -0.0198267 0)
(0.10321 -0.0157648 0)
(0.102437 -0.0135198 0)
(0.100974 -0.0116145 0)