/*--------------------------------*- C++ -*----------------------------------*\
| =========                 |                                                 |
| \\      /  F ield         | OpenFOAM: The Open Source CFD Toolbox           |
|  \\    /   O peration     | Version:  2112                                  |
|   \\  /    A nd           | Website:  www.openfoam.com                      |
|    \\/     M anipulation  |                                                 |
\*---------------------------------------------------------------------------*/
FoamFile
{
    version     2.0;
    format      ascii;
    arch        "LSB;label=32;scalar=64";
    class       volScalarField;
    location    "0.35";
    object      nut;
}
// * * * * * * * * * * * * * * * * * * * * * * * * * * * * * * * * * * * * * //

dimensions      [0 2 -1 0 0 0 0];

internalField   nonuniform List<scalar> 
1880
(
3.46715e-11
3.22668e-12
6.73956e-13
4.29522e-14
1.79593e-14
1.41773e-13
1.06086e-14
2.24712e-14
2.31899e-14
6.12689e-14
4.62688e-14
8.99291e-14
4.43355e-14
3.14986e-14
5.89884e-14
2.48631e-14
1.77687e-13
3.47652e-14
1.37969e-13
8.88906e-13
5.2331e-13
5.07666e-12
1.21461e-12
3.92846e-12
6.9491e-12
7.80381e-13
6.50133e-11
4.53904e-11
3.80986e-10
1.0853e-09
3.9564e-09
5.46152e-09
2.35933e-09
8.07652e-11
9.21465e-11
2.10795e-11
1.90275e-12
1.83547e-11
5.17928e-13
5.46315e-12
8.20252e-13
3.17948e-12
6.87133e-12
3.13469e-12
6.83309e-12
8.08737e-12
6.00791e-11
3.97643e-11
3.64018e-10
1.01033e-10
2.46349e-10
2.90462e-10
7.00824e-11
8.06256e-10
2.72473e-10
2.08057e-10
1.39372e-09
1.32394e-09
1.37677e-09
4.61623e-09
2.17559e-09
2.46018e-09
7.94004e-10
7.76353e-10
4.45594e-10
4.94383e-10
3.09461e-09
1.59596e-11
7.85657e-10
1.46487e-09
1.16007e-10
2.33662e-10
3.55807e-09
8.54699e-11
3.21798e-09
5.70303e-10
9.43878e-12
4.6881e-09
4.31903e-11
3.12377e-09
4.77257e-09
1.18191e-09
5.45147e-09
8.45434e-09
8.44318e-10
1.01024e-08
1.23302e-08
3.06803e-09
2.77897e-08
2.95917e-08
2.70279e-10
6.61875e-10
4.93752e-11
1.19616e-09
3.59688e-09
2.35491e-09
1.01691e-08
2.84283e-09
6.02003e-09
1.37166e-10
4.2566e-09
8.97485e-11
2.48528e-08
4.73012e-09
1.57775e-08
6.72817e-09
7.15789e-09
5.27842e-09
8.98533e-09
6.11506e-09
8.63605e-10
4.58248e-09
5.09085e-09
1.18618e-08
9.70021e-09
1.54898e-08
1.88725e-08
1.91708e-08
2.83448e-08
3.30461e-08
5.99711e-10
5.40666e-10
3.857e-09
4.55995e-10
2.75944e-09
1.55854e-09
4.11778e-09
1.74558e-09
3.17464e-09
1.06665e-11
1.42103e-10
1.10294e-09
2.5043e-08
3.68525e-09
2.19028e-08
4.42254e-09
4.16291e-09
5.44552e-09
9.96611e-09
6.58533e-09
1.67308e-10
5.68658e-09
1.79503e-09
1.07934e-08
5.96795e-09
1.39532e-08
1.32432e-08
1.61274e-08
2.1408e-08
3.03201e-08
1.40135e-10
7.45235e-10
1.6312e-09
2.09485e-09
6.34459e-10
3.29973e-09
1.02799e-09
3.15024e-09
5.90047e-10
3.01639e-09
9.10711e-10
1.09379e-10
1.91719e-12
7.6644e-10
3.74478e-09
1.51074e-09
1.04215e-09
1.65763e-09
2.25769e-09
4.55847e-09
3.98206e-09
6.79215e-09
6.48516e-09
8.83177e-09
9.48153e-09
1.23358e-08
1.48864e-08
1.76296e-08
2.04878e-08
2.18625e-08
4.22231e-10
1.80697e-09
3.7694e-09
1.65448e-09
3.0809e-09
1.88487e-09
3.46004e-09
1.77474e-09
1.93595e-09
2.85695e-10
1.0576e-09
6.36125e-10
6.7915e-10
1.40327e-09
1.51438e-09
1.20165e-09
2.95958e-09
2.18218e-09
3.36986e-09
3.73888e-09
5.79175e-09
5.09323e-09
6.86808e-09
8.09905e-09
9.09548e-09
1.04453e-08
1.36762e-08
1.40046e-08
1.74977e-08
2.1346e-08
2.37691e-10
1.29359e-09
2.6324e-09
1.67647e-09
1.72378e-09
1.94432e-09
2.01713e-09
2.10552e-09
1.7259e-09
1.75659e-10
2.04444e-09
1.15629e-09
2.32704e-09
1.76035e-09
2.27208e-09
3.22291e-09
4.90681e-09
3.17487e-09
4.65662e-09
5.13255e-09
7.02466e-09
6.59058e-09
8.14129e-09
8.82679e-09
1.02703e-08
1.09137e-08
1.3914e-08
1.41911e-08
1.76677e-08
1.81666e-08
2.90639e-10
1.34474e-09
2.52951e-09
1.49918e-09
1.63512e-09
1.48552e-09
1.7304e-09
1.77266e-09
1.56417e-09
1.48995e-09
2.2914e-09
1.4132e-09
2.82811e-09
1.83426e-09
3.15347e-09
3.9539e-09
5.55361e-09
3.85588e-09
4.83592e-09
4.61829e-09
6.63916e-09
6.0663e-09
7.8605e-09
8.7378e-09
1.00493e-08
1.03988e-08
1.29399e-08
1.36903e-08
1.59957e-08
1.79064e-08
2.26443e-10
1.07623e-09
2.02161e-09
1.35198e-09
1.41645e-09
1.46864e-09
1.77414e-09
1.98979e-09
1.95999e-09
1.63104e-09
2.48982e-09
2.36853e-09
3.68523e-09
2.77628e-09
3.64675e-09
4.23872e-09
5.33108e-09
4.10689e-09
5.08505e-09
5.2851e-09
6.95162e-09
6.59486e-09
8.16567e-09
8.84306e-09
1.01908e-08
1.04322e-08
1.26328e-08
1.32878e-08
1.58224e-08
1.6365e-08
2.44211e-10
9.92431e-10
1.60094e-09
1.28874e-09
1.28176e-09
1.57649e-09
1.59111e-09
2.1538e-09
2.10086e-09
2.10579e-09
2.72977e-09
2.79654e-09
3.63127e-09
3.18807e-09
3.65139e-09
4.46684e-09
4.68704e-09
4.26748e-09
5.19746e-09
5.28949e-09
6.64853e-09
6.80072e-09
8.02798e-09
8.88639e-09
9.90108e-09
1.02977e-08
1.20183e-08
1.2973e-08
1.48404e-08
1.58311e-08
2.68189e-10
8.54188e-10
1.42645e-09
1.27988e-09
1.45249e-09
1.7394e-09
1.8826e-09
2.29547e-09
2.31132e-09
2.44616e-09
2.88506e-09
3.05841e-09
4.04777e-09
3.19892e-09
3.89727e-09
4.17498e-09
4.82703e-09
4.56013e-09
5.43468e-09
5.59756e-09
6.87515e-09
6.88308e-09
8.14665e-09
8.80688e-09
9.88827e-09
1.02979e-08
1.18034e-08
1.26136e-08
1.44875e-08
1.50751e-08
3.41714e-11
6.83126e-10
1.02336e-09
1.297e-09
1.54419e-09
1.81716e-09
1.89589e-09
2.41778e-09
2.39054e-09
2.41354e-09
2.995e-09
3.40689e-09
3.56579e-09
3.45652e-09
3.93406e-09
4.35062e-09
4.48363e-09
4.80973e-09
5.75403e-09
5.87319e-09
6.66346e-09
7.10135e-09
8.02122e-09
8.85564e-09
9.7007e-09
1.02915e-08
1.14482e-08
1.23192e-08
1.36889e-08
1.45097e-08
1.37458e-11
4.90886e-10
1.09285e-09
1.36985e-09
1.59811e-09
1.99927e-09
2.04724e-09
2.47507e-09
2.48966e-09
2.68431e-09
3.10062e-09
3.37644e-09
3.85009e-09
3.58285e-09
4.16841e-09
4.37621e-09
4.84326e-09
5.16107e-09
5.90439e-09
6.01996e-09
6.94036e-09
7.17546e-09
8.15356e-09
8.88389e-09
9.73855e-09
1.03488e-08
1.13831e-08
1.21148e-08
1.33949e-08
1.4122e-08
3.90116e-16
2.62546e-10
4.59862e-10
1.06339e-09
1.70732e-09
1.68141e-09
1.97129e-09
2.44224e-09
2.31181e-09
2.3295e-09
2.9938e-09
3.40541e-09
3.34335e-09
3.59462e-09
4.29523e-09
4.34972e-09
4.60283e-09
5.17899e-09
6.11366e-09
6.17278e-09
6.59299e-09
7.21646e-09
8.09013e-09
8.87288e-09
9.61221e-09
1.02488e-08
1.10985e-08
1.18298e-08
1.2657e-08
1.33934e-08
5.46754e-11
8.1162e-10
1.21839e-09
1.48637e-09
1.56537e-09
1.88673e-09
1.93642e-09
2.30534e-09
2.3863e-09
2.77612e-09
2.94218e-09
3.28976e-09
3.51217e-09
3.72534e-09
4.24377e-09
4.39399e-09
4.78679e-09
5.35174e-09
6.07541e-09
6.20549e-09
6.86387e-09
7.34467e-09
8.08393e-09
8.83007e-09
9.5915e-09
1.03123e-08
1.11707e-08
1.17978e-08
1.2608e-08
1.32918e-08
1.58254e-12
6.63926e-12
1.5718e-10
6.18812e-10
1.55913e-09
1.04152e-09
1.24486e-09
1.61342e-09
1.50077e-09
1.73504e-09
2.53208e-09
3.03432e-09
2.82144e-09
3.52135e-09
4.20185e-09
4.18826e-09
4.51972e-09
5.31712e-09
6.08182e-09
6.18391e-09
6.51337e-09
7.20438e-09
7.93736e-09
8.51022e-09
9.18796e-09
9.87944e-09
1.06929e-08
1.13662e-08
1.18152e-08
1.23157e-08
2.04213e-09
2.56813e-09
1.59338e-09
1.4959e-09
1.99909e-09
2.41373e-09
3.0807e-09
3.41502e-09
3.36304e-09
3.16721e-09
1.53733e-09
1.21791e-09
6.56552e-10
4.12309e-10
1.62203e-10
8.88368e-11
2.86358e-11
8.78599e-13
1.02325e-12
5.17878e-12
6.79036e-12
2.24569e-13
3.45547e-14
2.45365e-13
3.25852e-12
1.44038e-11
3.58228e-11
1.09951e-10
2.1716e-10
5.56659e-10
4.96491e-09
5.56936e-09
9.89905e-10
1.34674e-10
4.79362e-11
2.43242e-12
3.95853e-13
1.81168e-13
1.07156e-13
2.7934e-13
2.87766e-12
6.17236e-13
2.73195e-13
1.11898e-12
2.03894e-12
2.45607e-12
3.7439e-12
4.24929e-12
2.95689e-12
2.59912e-12
7.48383e-12
1.28797e-11
1.02838e-11
8.01592e-12
7.0024e-12
7.63174e-12
1.15063e-11
1.47543e-11
1.54614e-11
1.26558e-11
3.46786e-11
4.64675e-12
2.58801e-13
1.68743e-14
4.98813e-14
3.50079e-14
2.76364e-15
3.46045e-16
3.41263e-17
2.58e-15
5.55832e-16
9.43807e-16
7.69686e-16
1.3178e-14
8.75464e-15
1.83348e-15
5.09653e-16
7.37133e-15
3.31526e-14
7.52796e-14
6.18936e-14
1.56063e-14
2.55732e-15
8.2367e-15
7.04508e-14
2.88389e-13
4.89324e-13
4.22044e-13
2.06147e-13
4.39918e-14
1.32599e-09
4.54097e-10
6.09411e-10
4.28632e-11
5.57087e-11
2.06482e-10
4.01894e-11
1.15209e-10
1.94851e-10
1.20152e-09
1.18944e-08
1.02471e-08
1.48969e-08
1.51708e-08
5.23284e-09
2.23732e-08
4.40361e-10
5.58683e-08
8.88124e-10
1.04634e-07
1.2096e-08
2.48813e-08
5.08018e-08
5.52028e-08
1.78261e-08
8.4322e-08
1.51173e-08
5.2801e-08
6.9213e-08
7.25374e-08
5.49557e-08
2.06795e-08
3.39903e-08
4.50286e-08
2.5357e-08
4.09386e-08
3.54262e-08
1.9528e-08
2.26061e-08
6.20607e-08
3.49655e-08
3.33988e-08
3.60963e-08
3.89676e-08
3.14312e-08
3.17539e-08
4.04857e-08
4.43043e-08
2.72652e-08
3.60009e-08
3.63419e-08
2.53722e-08
2.84071e-08
3.40328e-08
3.27612e-08
3.05862e-08
3.98737e-08
4.81429e-08
2.48512e-08
3.05204e-08
2.78954e-08
2.6218e-08
2.75912e-08
2.84632e-08
2.96455e-08
2.84867e-08
3.47154e-08
4.14066e-08
2.84581e-08
2.71671e-08
2.92162e-08
2.31671e-08
2.51688e-08
2.72387e-08
2.87331e-08
2.87485e-08
3.09214e-08
3.63034e-08
2.69933e-08
2.45683e-08
2.42268e-08
2.18401e-08
2.39052e-08
2.48643e-08
2.60694e-08
2.68378e-08
2.77055e-08
3.12013e-08
2.68495e-08
2.28001e-08
2.34072e-08
2.03116e-08
2.24115e-08
2.35197e-08
2.40724e-08
2.53975e-08
2.63954e-08
2.70379e-08
2.40489e-08
2.24627e-08
2.03601e-08
1.89834e-08
2.09794e-08
2.20983e-08
2.24909e-08
2.3333e-08
2.39653e-08
2.49352e-08
2.29726e-08
2.0148e-08
1.90792e-08
1.79491e-08
1.9711e-08
2.06188e-08
2.10176e-08
2.20148e-08
2.23839e-08
2.21421e-08
2.08586e-08
1.95113e-08
1.70115e-08
1.68306e-08
1.84564e-08
1.94944e-08
1.96901e-08
2.03115e-08
2.06416e-08
2.06021e-08
1.93697e-08
1.77101e-08
1.624e-08
1.60747e-08
1.73882e-08
1.81768e-08
1.85657e-08
1.90839e-08
1.90906e-08
1.8713e-08
1.79743e-08
1.67325e-08
1.4625e-08
1.50136e-08
1.61852e-08
1.70657e-08
1.73385e-08
1.7727e-08
1.76985e-08
1.73902e-08
1.66381e-08
1.5435e-08
1.43836e-08
1.4403e-08
1.52712e-08
1.58616e-08
1.62402e-08
1.65435e-08
1.64984e-08
1.6166e-08
1.56262e-08
1.45956e-08
1.28733e-08
1.31329e-08
1.39466e-08
1.44865e-08
1.49708e-08
1.51561e-08
1.53454e-08
1.48497e-08
1.45636e-08
1.31393e-08
1.01593e-09
8.40992e-10
1.8814e-09
2.06507e-09
3.42256e-09
3.29245e-09
4.246e-09
3.47674e-09
3.6831e-09
2.47814e-09
8.28557e-12
3.33082e-12
1.7117e-13
2.99612e-13
1.77499e-12
7.13808e-12
1.26496e-11
1.92641e-11
2.14113e-11
1.93576e-11
1.77033e-14
4.72382e-16
7.21561e-15
1.85232e-14
3.11519e-14
5.22225e-14
5.37931e-14
8.0531e-14
6.11247e-14
3.95046e-14
7.29538e-08
1.15776e-08
3.17498e-09
5.55274e-08
3.59606e-08
1.62276e-08
3.44426e-09
5.88053e-10
2.44853e-10
1.27733e-10
1.14513e-10
2.40917e-10
3.94901e-10
1.73407e-09
5.00056e-09
3.04931e-08
1.08133e-07
9.37662e-08
1.48489e-08
1.84873e-09
2.96098e-10
6.52315e-11
1.95683e-11
7.02506e-12
2.68482e-12
9.19514e-13
1.66528e-13
2.38518e-15
1.16903e-14
9.8705e-14
1.96104e-13
2.24057e-13
1.70115e-13
1.02536e-13
4.75222e-14
1.88167e-14
6.06241e-15
1.33974e-15
4.78924e-16
1.18945e-15
7.10324e-08
7.8938e-07
3.73354e-10
4.46108e-08
1.42648e-07
1.48337e-07
2.09714e-08
4.25602e-08
7.05856e-07
1.82868e-07
4.08047e-10
1.55077e-09
9.38773e-09
4.09348e-08
6.73702e-08
1.02332e-07
1.12442e-07
1.0483e-07
8.50298e-08
6.39286e-08
4.53235e-08
2.96807e-08
1.81494e-08
1.02302e-08
4.98236e-09
1.93324e-09
5.65741e-10
1.21773e-10
1.60676e-11
5.40419e-13
4.19193e-13
2.05357e-12
3.35151e-12
2.8973e-12
2.06315e-12
1.11017e-12
6.22491e-13
2.79125e-13
1.40797e-13
4.49723e-14
4.17036e-08
1.82581e-08
2.63774e-08
8.93568e-08
4.39222e-08
3.95906e-07
6.62264e-07
7.6093e-07
7.16499e-07
2.69529e-07
3.62585e-08
1.21529e-09
4.09231e-11
2.92146e-10
7.24732e-09
3.62617e-08
7.77323e-08
9.76687e-08
8.83933e-08
6.96733e-08
5.6607e-08
4.73152e-08
3.86763e-08
3.28189e-08
3.01643e-08
2.73769e-08
2.30215e-08
1.33918e-08
2.47517e-09
5.00188e-11
1.28128e-11
8.66675e-11
1.03534e-10
6.02993e-11
2.6568e-11
8.13635e-12
2.59693e-12
7.02522e-13
2.4986e-13
8.08465e-14
6.04032e-08
1.61585e-08
1.30535e-07
1.86728e-07
1.60358e-10
4.65091e-07
7.03696e-07
9.05071e-07
8.2561e-07
3.69872e-07
6.39961e-08
4.55322e-09
8.93843e-10
3.96282e-10
2.5997e-11
5.44425e-09
3.40938e-08
7.78916e-08
9.194e-08
7.26351e-08
5.34217e-08
4.6119e-08
3.8745e-08
2.90362e-08
2.13552e-08
1.28689e-08
2.35865e-09
4.02489e-10
3.96492e-10
1.63023e-09
5.28947e-09
3.03321e-11
3.35715e-09
2.47421e-09
1.13382e-09
3.19129e-10
5.23701e-11
8.07337e-12
1.98556e-13
7.19222e-14
3.2369e-08
2.77933e-08
1.32968e-07
1.26627e-07
2.57719e-08
1.08944e-06
1.43612e-06
1.43394e-06
1.28971e-06
7.31151e-07
1.69458e-07
1.52155e-08
1.16007e-09
9.19723e-10
1.64811e-10
1.46376e-09
1.96654e-08
4.95179e-08
8.06352e-08
7.18597e-08
5.00686e-08
3.54399e-08
2.59101e-08
1.35504e-08
9.18667e-09
4.92058e-09
3.12027e-08
1.3729e-08
1.2501e-09
6.57833e-11
1.0514e-12
1.42575e-10
8.3329e-10
2.26152e-09
1.97569e-09
1.58287e-08
6.45211e-09
6.58426e-10
1.54033e-11
1.36036e-12
1.99221e-06
5.25702e-08
1.35671e-07
9.91352e-08
9.332e-09
4.88699e-07
8.25073e-07
1.10316e-06
1.17502e-06
8.88146e-07
3.43545e-07
7.09199e-08
1.37907e-08
2.72363e-09
1.61189e-10
2.01273e-09
3.93025e-08
6.06201e-08
6.52328e-08
5.16472e-08
2.83646e-08
2.6722e-08
1.95852e-08
4.2489e-09
9.37414e-11
1.99919e-11
4.00357e-09
1.18066e-09
2.39051e-08
2.22449e-11
3.93049e-11
2.08712e-10
4.1424e-10
5.92278e-10
7.2788e-10
8.07386e-10
7.35421e-10
6.71914e-10
6.59574e-11
4.5688e-12
4.88238e-08
1.48311e-07
2.127e-07
2.39086e-07
1.42548e-08
3.15914e-07
1.53312e-06
2.00208e-06
1.89714e-06
1.38549e-06
6.70257e-07
2.00819e-07
9.51956e-08
5.14814e-08
1.54656e-09
4.10681e-09
5.49032e-08
7.87019e-08
6.88718e-08
5.33287e-08
2.42383e-08
1.21343e-08
1.84163e-08
1.56426e-08
4.11132e-09
9.80019e-10
6.85632e-09
6.37439e-09
1.03831e-10
4.42846e-12
3.06919e-09
1.01177e-08
6.56444e-09
3.73611e-09
2.13228e-09
1.25044e-09
6.47182e-10
3.35488e-10
1.29508e-10
4.34498e-11
2.18506e-08
5.66724e-08
7.54591e-09
1.04539e-07
7.99424e-08
6.79801e-09
1.22407e-07
1.30943e-06
1.77277e-06
1.56453e-06
9.65003e-07
3.36756e-07
1.18528e-07
8.41346e-08
5.15862e-09
2.01978e-08
7.86163e-08
6.72329e-08
4.99059e-08
5.33307e-08
3.56354e-08
3.40365e-08
3.05394e-08
2.50969e-08
2.25363e-08
2.11959e-08
2.02952e-08
1.7136e-08
2.91986e-09
4.19405e-12
2.80272e-10
4.01863e-11
4.79015e-11
1.97423e-09
7.7434e-09
8.12051e-09
3.60157e-09
9.82742e-10
6.60729e-11
4.6387e-13
3.96838e-07
1.49394e-08
4.40287e-09
1.26177e-11
1.79771e-08
8.22111e-08
3.49702e-07
1.07037e-06
1.56395e-06
1.46054e-06
9.32628e-07
4.78109e-07
2.50786e-07
4.01017e-08
9.91886e-09
8.4021e-08
5.59785e-08
2.56235e-08
1.77181e-08
3.15054e-08
3.56309e-08
2.68893e-08
2.35303e-08
2.36739e-08
2.33267e-08
2.13536e-08
1.69846e-08
1.22507e-08
9.84552e-09
8.49939e-09
4.14522e-09
3.74854e-10
1.24363e-11
1.31226e-11
5.82212e-11
4.45509e-10
2.08179e-09
3.74705e-09
3.69158e-09
1.99837e-10
1.02081e-07
3.0114e-07
3.15345e-08
6.67758e-09
3.08549e-08
3.30508e-07
7.22835e-07
1.13828e-06
1.38458e-06
1.35408e-06
1.08713e-06
5.35464e-07
2.50955e-10
4.52073e-08
8.27799e-08
8.18835e-08
8.08003e-08
5.64203e-08
4.42241e-08
3.23432e-08
3.21398e-08
2.8449e-08
2.72688e-08
2.21674e-08
1.84308e-08
1.97878e-08
1.98873e-08
1.04535e-08
9.15466e-10
3.14884e-10
6.33403e-10
1.33187e-09
1.48915e-09
3.25208e-09
2.38695e-08
3.36088e-09
2.65499e-09
2.12193e-09
2.74193e-09
1.95872e-09
3.42593e-08
2.53617e-08
4.26757e-08
2.94535e-08
2.11793e-10
4.21332e-07
6.9786e-07
5.11873e-07
3.33361e-07
1.68472e-07
2.64261e-10
4.74521e-08
6.38853e-08
8.08126e-08
8.30767e-08
5.81645e-08
5.19515e-08
3.26445e-08
3.52388e-08
3.65008e-08
3.27834e-08
1.23707e-08
1.1701e-08
1.30709e-10
1.19433e-08
9.58565e-09
3.16309e-09
1.55698e-11
2.51565e-08
9.77669e-09
1.26129e-08
6.43911e-09
1.15167e-09
7.86276e-10
3.00115e-10
1.55032e-10
4.00799e-10
4.85122e-10
4.75749e-10
4.2724e-10
2.23219e-08
2.87484e-08
3.87856e-08
6.42482e-08
6.04504e-08
3.55165e-08
1.74451e-08
3.58421e-08
5.16044e-08
5.15389e-08
6.29622e-08
7.33438e-08
6.17821e-08
4.81156e-08
5.67644e-08
4.61388e-08
4.19331e-08
4.13897e-08
4.10869e-08
2.38661e-08
2.20609e-08
3.03331e-08
2.27662e-08
1.43382e-08
1.53737e-08
6.07773e-09
1.00848e-08
1.90579e-09
1.47061e-07
1.18162e-07
4.95692e-09
2.10352e-10
3.78657e-09
1.68268e-09
4.05675e-10
7.42279e-09
5.85709e-11
7.10598e-10
3.93939e-09
2.00629e-09
3.13498e-08
2.83385e-08
3.04105e-08
4.54974e-08
4.75621e-08
5.12695e-08
5.42901e-08
4.85832e-08
5.09284e-08
5.80832e-08
5.91902e-08
6.2976e-08
5.83638e-08
4.53917e-08
4.25779e-08
5.0636e-08
4.61229e-08
2.59896e-08
3.06438e-08
3.2542e-08
2.61023e-08
2.45345e-08
1.43613e-08
9.97895e-09
1.55173e-08
1.6465e-08
1.58328e-08
1.58253e-08
1.267e-08
9.83182e-09
1.05656e-08
7.1413e-09
2.19233e-10
3.95731e-10
8.04915e-11
6.39604e-11
4.83884e-10
9.91171e-10
2.83664e-09
2.92609e-09
3.41743e-08
3.24063e-08
2.8692e-08
3.46141e-08
3.79058e-08
4.18519e-08
4.89802e-08
4.15239e-08
4.35644e-08
4.95063e-08
4.49212e-08
5.15536e-08
4.76958e-08
4.09871e-08
3.56044e-08
3.6133e-08
3.94973e-08
3.46009e-08
2.63466e-08
2.63224e-08
2.27336e-08
2.1499e-08
1.60457e-08
1.45838e-08
1.69863e-08
1.22409e-08
8.99041e-10
3.67279e-09
1.11871e-08
4.48631e-10
8.08707e-09
2.61746e-08
1.11982e-10
3.11908e-09
1.38288e-08
3.26382e-08
4.87164e-08
1.43775e-08
2.66681e-14
3.21855e-10
3.12066e-08
3.36301e-08
2.79614e-08
2.96123e-08
3.14523e-08
3.59291e-08
4.28724e-08
4.37909e-08
4.23882e-08
4.33859e-08
3.59444e-08
3.79932e-08
3.96922e-08
4.01608e-08
3.80042e-08
2.99314e-08
2.67663e-08
3.24915e-08
3.27381e-08
2.13412e-08
1.97398e-08
2.09652e-08
1.89637e-08
3.05752e-09
2.46523e-09
1.18393e-08
4.93706e-09
8.3317e-09
4.7185e-09
3.11477e-11
1.97454e-09
6.4147e-09
4.01327e-09
3.69354e-09
5.01275e-09
4.82542e-08
5.97838e-08
3.15578e-08
6.79202e-09
6.1651e-11
2.92983e-08
3.02717e-08
2.67475e-08
2.62175e-08
2.75878e-08
3.12762e-08
3.49565e-08
3.90827e-08
3.86362e-08
3.62829e-08
3.51085e-08
2.82115e-08
3.2197e-08
3.46928e-08
3.10177e-08
2.90424e-08
2.77382e-08
2.05986e-08
2.56662e-08
2.00756e-08
1.88298e-08
1.58504e-08
2.04417e-08
1.68575e-08
1.36887e-08
1.31415e-08
1.08286e-08
1.00437e-08
1.10519e-08
1.7795e-09
1.4808e-09
5.05796e-09
1.24945e-09
6.85208e-10
9.59139e-12
6.21385e-10
2.52507e-09
3.53545e-09
4.21983e-09
2.62244e-09
2.58856e-08
2.62432e-08
2.37426e-08
2.32045e-08
2.47143e-08
2.7376e-08
2.92233e-08
3.11775e-08
3.11795e-08
3.22033e-08
2.98166e-08
2.86764e-08
2.50762e-08
2.81188e-08
2.71868e-08
2.62781e-08
2.8678e-08
2.46126e-08
1.92032e-08
2.13867e-08
2.39378e-08
2.00207e-08
1.48536e-08
1.51243e-08
1.28981e-08
1.28107e-08
4.78001e-09
1.27124e-09
6.93546e-09
4.25964e-09
2.35516e-10
1.08321e-09
2.33063e-09
4.18693e-10
1.33888e-08
1.91942e-08
1.39427e-08
6.80834e-09
4.29578e-09
2.95023e-09
2.24851e-08
2.37156e-08
2.1939e-08
2.09297e-08
2.20204e-08
2.36925e-08
2.50997e-08
2.56079e-08
2.71506e-08
2.48927e-08
2.48511e-08
2.62104e-08
2.43281e-08
2.1341e-08
2.4977e-08
2.39969e-08
2.02499e-08
2.22558e-08
2.27334e-08
1.87885e-08
1.69314e-08
1.69148e-08
1.49503e-08
1.38038e-08
1.10952e-08
1.27159e-08
1.06552e-08
6.09894e-09
5.54256e-09
5.35611e-09
3.86398e-09
4.68906e-09
5.64073e-09
4.69879e-09
3.01446e-09
2.12288e-09
1.97464e-09
2.1207e-09
2.40767e-09
1.60319e-09
2.06873e-08
2.04049e-08
1.94513e-08
1.92652e-08
1.93243e-08
2.03146e-08
2.18076e-08
2.17581e-08
2.17278e-08
2.24062e-08
2.13528e-08
2.0403e-08
2.171e-08
2.16281e-08
1.90214e-08
2.09519e-08
2.09463e-08
1.90303e-08
1.94461e-08
1.95379e-08
1.75155e-08
1.63017e-08
1.6444e-08
1.60089e-08
1.27983e-08
1.07635e-08
1.05335e-08
1.05017e-08
9.65105e-09
7.43733e-09
4.78087e-09
2.78526e-09
1.91616e-09
2.34769e-09
3.56852e-09
4.13373e-09
4.17315e-09
3.35028e-09
2.74814e-09
1.44226e-09
1.81987e-08
1.84321e-08
1.75268e-08
1.69859e-08
1.75325e-08
1.75999e-08
1.78371e-08
1.89531e-08
1.86202e-08
1.81707e-08
1.89638e-08
1.8379e-08
1.72082e-08
1.89342e-08
1.84954e-08
1.70688e-08
1.83892e-08
1.90744e-08
1.73061e-08
1.68249e-08
1.77188e-08
1.67445e-08
1.42163e-08
1.29882e-08
1.31046e-08
1.26161e-08
1.07853e-08
8.13794e-09
6.08334e-09
5.34149e-09
5.289e-09
5.23717e-09
5.18908e-09
4.89905e-09
4.21712e-09
3.31219e-09
2.41949e-09
1.65709e-09
1.2533e-09
7.03476e-10
1.67003e-08
1.64138e-08
1.56736e-08
1.53282e-08
1.51377e-08
1.5405e-08
1.55992e-08
1.52733e-08
1.5843e-08
1.60396e-08
1.5363e-08
1.61411e-08
1.62924e-08
1.51328e-08
1.60582e-08
1.70433e-08
1.6046e-08
1.61199e-08
1.74614e-08
1.71712e-08
1.58087e-08
1.53348e-08
1.53111e-08
1.42884e-08
1.24079e-08
1.07922e-08
1.00436e-08
9.38135e-09
8.31663e-09
6.88e-09
5.41279e-09
4.20552e-09
3.61531e-09
3.39329e-09
3.46098e-09
3.29514e-09
3.11943e-09
2.50987e-09
2.25808e-09
1.5089e-09
1.50711e-08
1.47975e-08
1.40718e-08
1.3554e-08
1.33777e-08
1.31312e-08
1.30862e-08
1.33573e-08
1.31761e-08
1.3311e-08
1.38662e-08
1.35655e-08
1.35756e-08
1.41818e-08
1.38943e-08
1.38742e-08
1.48802e-08
1.51233e-08
1.46268e-08
1.46591e-08
1.47895e-08
1.38055e-08
1.23007e-08
1.1147e-08
1.0422e-08
9.44628e-09
8.06953e-09
6.37555e-09
5.01809e-09
4.14305e-09
3.89989e-09
3.83638e-09
3.85197e-09
3.6377e-09
3.233e-09
2.62152e-09
1.99739e-09
1.36191e-09
9.85202e-10
5.11949e-10
1.40414e-08
1.35531e-08
1.27717e-08
1.22045e-08
1.18255e-08
1.16019e-08
1.14793e-08
1.14621e-08
1.17793e-08
1.20381e-08
1.2188e-08
1.24688e-08
1.22941e-08
1.16935e-08
1.13437e-08
1.05707e-08
9.1486e-09
7.9711e-09
7.01586e-09
5.524e-09
3.97812e-09
2.91241e-09
2.32699e-09
1.76906e-09
1.21962e-09
7.421e-10
5.42506e-10
4.66737e-10
5.31335e-10
5.9327e-10
6.54287e-10
5.91812e-10
5.63417e-10
4.55749e-10
4.46888e-10
3.56339e-10
3.85685e-10
3.12651e-10
3.48447e-10
3.01013e-10
1.26312e-08
1.22086e-08
1.14803e-08
1.07919e-08
1.03063e-08
1.00521e-08
9.90982e-09
9.89079e-09
9.8785e-09
9.73226e-09
9.12666e-09
7.88459e-09
6.04562e-09
3.75629e-09
1.66169e-09
4.54283e-10
4.51557e-11
1.68701e-13
5.98418e-11
2.02142e-10
2.80863e-10
3.32807e-10
3.50295e-10
3.17234e-10
2.18549e-10
1.06895e-10
3.28726e-11
9.0154e-12
2.28228e-12
3.01616e-13
1.15656e-13
2.47578e-12
1.20192e-11
2.51095e-11
3.35908e-11
3.32193e-11
2.64442e-11
1.73001e-11
1.08597e-11
4.32116e-12
2.26397e-09
2.04854e-09
1.86984e-09
1.8166e-09
1.84126e-09
1.92589e-09
2.00322e-09
2.01653e-09
1.93735e-09
1.69679e-09
1.32604e-09
8.90464e-10
4.38052e-10
1.34803e-10
1.70306e-11
4.07659e-13
3.31746e-11
1.52654e-10
2.6024e-10
2.97195e-10
2.9762e-10
2.63348e-10
1.80443e-10
9.99791e-11
5.16748e-11
2.76016e-11
1.22303e-11
3.77826e-12
4.15887e-13
3.88727e-14
4.2554e-13
1.17781e-12
1.90882e-12
1.68203e-12
1.77692e-12
1.23393e-12
1.41587e-12
1.00775e-12
1.15404e-12
7.24945e-13
1.89106e-11
1.69846e-11
1.86307e-11
2.40343e-11
3.10084e-11
3.90805e-11
4.73643e-11
5.41695e-11
6.00369e-11
5.86905e-11
4.74074e-11
3.35538e-11
1.83389e-11
5.25547e-12
3.50383e-13
4.65738e-13
5.33525e-12
1.92671e-11
3.55872e-11
4.16296e-11
3.67095e-11
2.82869e-11
1.88008e-11
9.61947e-12
3.4922e-12
8.98391e-13
1.10474e-13
1.27369e-15
1.55261e-14
8.28334e-14
2.30438e-13
3.66836e-13
5.06618e-13
4.98672e-13
4.58019e-13
3.32325e-13
2.3721e-13
1.3517e-13
7.35453e-14
3.09527e-14
3.09943e-14
1.47344e-14
2.98917e-14
6.80737e-14
1.26014e-13
2.02409e-13
3.05966e-13
4.23829e-13
5.38905e-13
6.15001e-13
5.73034e-13
4.3144e-13
2.19547e-13
3.55877e-14
2.51862e-14
3.5084e-13
1.27826e-12
2.24218e-12
2.30383e-12
1.40192e-12
4.90855e-13
9.89242e-14
6.07062e-15
3.47678e-15
2.75698e-14
5.54904e-14
7.56642e-14
7.89321e-14
6.93455e-14
4.92849e-14
3.03203e-14
1.58281e-14
7.32894e-15
2.9172e-15
1.23526e-15
4.68931e-16
4.20371e-16
1.10439e-16
6.8731e-16
9.02681e-16
)
;

boundaryField
{
    inlet
    {
        type            calculated;
        value           nonuniform List<scalar> 
20
(
1.75362e-34
3.02459e-32
2.32265e-32
1.51201e-32
1.14882e-32
9.56613e-33
8.35582e-33
6.70706e-33
5.34306e-33
3.6004e-33
2.35971e-33
2.29359e-33
2.12026e-33
1.44336e-33
6.47639e-34
1.02091e-33
3.25442e-34
6.9508e-33
6.10952e-33
1.4751e-34
)
;
    }
    outlet
    {
        type            calculated;
        value           nonuniform List<scalar> 
27
(
5.94006e-33
9.01031e-33
7.48964e-34
7.49534e-33
5.32414e-33
6.12287e-34
1.71167e-32
7.37442e-33
1.26197e-34
5.47187e-34
4.13241e-34
7.27305e-33
2.10557e-33
7.99107e-33
3.87516e-33
3.39502e-33
2.72337e-36
1.22493e-38
3.2099e-36
4.05254e-37
6.302e-37
1.77461e-36
4.01199e-38
2.64147e-35
2.03616e-34
1.78028e-34
1.39439e-33
)
;
    }
    lowerWall
    {
        type            fixedValue;
        value           uniform 0;
    }
    upperWall
    {
        type            fixedValue;
        value           uniform 0;
    }
    defaultFaces
    {
        type            empty;
    }
}


// ************************************************************************* //
