/*--------------------------------*- C++ -*----------------------------------*\
| =========                 |                                                 |
| \\      /  F ield         | OpenFOAM: The Open Source CFD Toolbox           |
|  \\    /   O peration     | Version:  2112                                  |
|   \\  /    A nd           | Website:  www.openfoam.com                      |
|    \\/     M anipulation  |                                                 |
\*---------------------------------------------------------------------------*/
FoamFile
{
    version     2.0;
    format      ascii;
    arch        "LSB;label=32;scalar=64";
    class       volScalarField;
    location    "0.35";
    object      p;
}
// * * * * * * * * * * * * * * * * * * * * * * * * * * * * * * * * * * * * * //

dimensions      [0 2 -2 0 0 0 0];

internalField   nonuniform List<scalar> 
1880
(
0.00319861
0.00306751
0.00297463
0.00292559
0.00289691
0.0028762
0.00285712
0.00283941
0.00282224
0.00281097
0.00280058
0.00279438
0.00279163
0.00279073
0.00279494
0.00280301
0.00281833
0.00283537
0.0028643
0.00289227
0.00293686
0.00298988
0.00304367
0.00312523
0.00319865
0.00328956
0.00340918
0.00351269
0.00364313
0.00372609
0.00301829
0.00299047
0.00294854
0.00291111
0.00288311
0.00286045
0.00284425
0.00282775
0.00281339
0.0028022
0.00279177
0.00278412
0.0027803
0.00277942
0.00277956
0.00279071
0.00279791
0.00282065
0.00283439
0.00287068
0.00290435
0.00295658
0.00300305
0.00307259
0.00313821
0.00322344
0.00333151
0.00343829
0.00356314
0.00370545
0.00298541
0.00296713
0.00293731
0.00290489
0.00287725
0.00285363
0.00283651
0.00282039
0.00280585
0.00279531
0.00278364
0.00277376
0.00276892
0.00276619
0.00276536
0.00276955
0.00277695
0.0027921
0.00280458
0.00283065
0.00285717
0.00289811
0.00293214
0.00298798
0.0030408
0.00309811
0.00318025
0.00323855
0.00331162
0.00336822
0.00292782
0.00291757
0.00290229
0.00288016
0.00285898
0.00283786
0.00282171
0.00280589
0.00279112
0.00278149
0.00276828
0.00275925
0.00275038
0.00274828
0.00274203
0.00274327
0.00274711
0.00275537
0.00276399
0.00277679
0.00280023
0.00282207
0.00285163
0.00288458
0.00291582
0.00295437
0.00299732
0.00301894
0.0030568
0.00306564
0.00289962
0.00289165
0.00288181
0.00286493
0.00284719
0.00282755
0.00281136
0.00279524
0.0027796
0.00276889
0.00275509
0.00274381
0.0027331
0.00272832
0.00271894
0.0027154
0.00271436
0.00271758
0.00271914
0.00272445
0.00273666
0.00274814
0.00276319
0.00277674
0.00279172
0.00280648
0.00281625
0.00281527
0.00280396
0.00277375
0.00287231
0.00286499
0.00285762
0.00284456
0.00282954
0.00281235
0.00279687
0.00278105
0.00276449
0.00275302
0.00273846
0.00272464
0.00271302
0.00270411
0.00269346
0.00268294
0.00267903
0.00267567
0.00267122
0.00266704
0.00266948
0.00266997
0.00267075
0.00266865
0.00266573
0.0026571
0.00264454
0.00261271
0.00257035
0.00251097
0.0028517
0.00284489
0.00283908
0.00282838
0.00281514
0.00279954
0.00278437
0.00276847
0.00275075
0.00273819
0.00272207
0.00270623
0.00269215
0.00268042
0.00266642
0.00265102
0.00264237
0.00263289
0.00262161
0.00260936
0.00260142
0.00259198
0.00257929
0.00256251
0.00254232
0.00251579
0.00247974
0.00242713
0.00236009
0.00227568
0.00283461
0.00282849
0.00282311
0.00281367
0.00280107
0.00278637
0.00277127
0.00275488
0.0027364
0.00272192
0.00270507
0.00268589
0.00267045
0.00265487
0.00263786
0.00261807
0.00260387
0.00258909
0.00257085
0.00255063
0.00253385
0.0025134
0.00248942
0.00245908
0.0024244
0.0023811
0.00232743
0.00225695
0.00217005
0.00206572
0.00282116
0.00281548
0.00281016
0.00280132
0.00278883
0.00277457
0.00275904
0.00274217
0.00272244
0.00270647
0.00268803
0.00266618
0.00264857
0.00262957
0.00260928
0.00258499
0.0025657
0.00254578
0.00252043
0.00249323
0.00246742
0.00243763
0.00240326
0.00236082
0.00231306
0.00225627
0.00218714
0.00210184
0.00199995
0.00188101
0.00281098
0.00280579
0.00280021
0.0027914
0.00277861
0.00276403
0.00274803
0.00272994
0.00270925
0.0026912
0.00267134
0.00264681
0.00262666
0.00260478
0.00258043
0.00255254
0.00252798
0.0025029
0.00247155
0.00243681
0.00240361
0.00236525
0.00232115
0.00226852
0.00220944
0.00214085
0.00205956
0.00196227
0.00184925
0.00171901
0.00280423
0.00279936
0.00279326
0.00278408
0.00277048
0.00275523
0.00273823
0.00271882
0.00269676
0.00267681
0.0026552
0.00262812
0.00260534
0.0025806
0.00255244
0.0025209
0.00249129
0.00246166
0.00242443
0.00238294
0.00234299
0.00229682
0.0022443
0.00218286
0.00211376
0.0020358
0.00194476
0.00183775
0.00171614
0.00157796
0.00280102
0.00279627
0.00278948
0.00277948
0.00276483
0.00274835
0.0027302
0.00270909
0.00268562
0.00266374
0.00264015
0.00261082
0.00258506
0.00255787
0.00252582
0.00249066
0.00245676
0.00242239
0.00238017
0.00233243
0.00228613
0.00223357
0.0021733
0.00210421
0.00202698
0.001941
0.00184238
0.00172792
0.00159986
0.00145614
0.00280169
0.00279675
0.00278887
0.00277749
0.00276114
0.00274288
0.00272299
0.00270002
0.00267504
0.00265134
0.00262582
0.00259434
0.00256579
0.00253613
0.00250048
0.00246187
0.00242409
0.00238543
0.00233863
0.0022853
0.00223341
0.00217529
0.00210829
0.00203285
0.0019488
0.00185627
0.00175178
0.00163166
0.00149852
0.00135088
0.00280696
0.00280174
0.00279267
0.00277966
0.0027614
0.00274108
0.0027193
0.00269418
0.00266744
0.00264181
0.00261397
0.00258043
0.00254902
0.00251673
0.00247772
0.00243567
0.00239461
0.00235176
0.00230059
0.00224253
0.00218549
0.00212271
0.00204997
0.00196886
0.00187946
0.00178163
0.00167252
0.00154823
0.00141139
0.00126168
0.00281676
0.00281022
0.00279873
0.00278265
0.00276131
0.00273812
0.00271394
0.00268685
0.00265853
0.00263129
0.00260147
0.00256618
0.00253241
0.00249776
0.00245593
0.00241114
0.00236735
0.00232073
0.00226555
0.00220352
0.00214217
0.00207537
0.00199782
0.00191197
0.00181835
0.00171625
0.00160345
0.00147624
0.00133683
0.00118531
0.00283571
0.00282785
0.00281329
0.00279318
0.0027679
0.00274135
0.00271464
0.00268556
0.00265571
0.00262667
0.00259463
0.00255736
0.00252097
0.00248341
0.00243868
0.00239112
0.00234452
0.0022941
0.00223503
0.00216986
0.00210473
0.00203413
0.00195247
0.00186248
0.00176546
0.00165998
0.00154423
0.0014151
0.00127432
0.00112289
0.00285629
0.00284422
0.00282383
0.00279803
0.00276867
0.00273935
0.0027109
0.00268058
0.00264947
0.00261867
0.00258447
0.0025455
0.00250696
0.00246692
0.00242014
0.00237095
0.00232234
0.00226871
0.00220651
0.00213925
0.00207115
0.00199716
0.00191241
0.00181945
0.00171981
0.00161167
0.00149345
0.00136302
0.00122128
0.00106859
0.00290956
0.0028872
0.00285279
0.00281557
0.00277939
0.00274635
0.00271596
0.00268419
0.00265131
0.00261808
0.00258139
0.00254076
0.00250037
0.00245809
0.00240987
0.00235918
0.00230791
0.00225094
0.00218613
0.00211697
0.00204545
0.00196743
0.00187979
0.00178431
0.00168235
0.0015721
0.00145217
0.0013215
0.00118072
0.00102996
0.0029384
0.00290388
0.00285884
0.00281652
0.00277856
0.0027454
0.00271451
0.0026817
0.00264738
0.00261216
0.00257378
0.00253271
0.00249081
0.00244578
0.00239617
0.0023448
0.00229131
0.00223089
0.00216352
0.00209304
0.00201917
0.0019393
0.00185144
0.00175498
0.00165025
0.00153667
0.00141394
0.00128259
0.00114239
0.000992403
0.00311802
0.00297829
0.00288098
0.00282709
0.00279094
0.00275764
0.00272364
0.00268754
0.0026507
0.00261337
0.00257394
0.002533
0.00249037
0.00244417
0.00239413
0.00234157
0.00228581
0.00222453
0.00215766
0.00208647
0.00201
0.00192764
0.00183833
0.00174124
0.00163596
0.00152228
0.00139975
0.0012693
0.0011306
0.000983351
0.00387051
0.00371438
0.00345056
0.00305083
0.00230808
0.00178822
0.000887694
0.000111049
-0.00115512
-0.00260528
0.00376801
0.00348824
0.00306577
0.00258391
0.00183991
0.0012917
0.000422344
-0.00046899
-0.00151347
-0.00293951
0.00339342
0.00309601
0.00268093
0.00232186
0.00161408
0.00111132
0.000293479
-0.000486186
-0.0014888
-0.00252513
0.00304966
0.00277264
0.00238146
0.00192698
0.00132549
0.000741884
4.84297e-05
-0.000779247
-0.00160463
-0.00251747
0.00271976
0.00245077
0.00203316
0.00165069
0.00109845
0.000572827
-5.42281e-05
-0.000801621
-0.00156944
-0.00235879
0.00242965
0.00215705
0.00180113
0.00138186
0.00090855
0.000360338
-0.000206335
-0.000900132
-0.00159559
-0.00227882
0.00216998
0.00191632
0.00155477
0.00116821
0.000730669
0.000232378
-0.000293431
-0.000911531
-0.00154815
-0.00214968
0.0019458
0.00169218
0.001367
0.000986169
0.00058617
0.000113552
-0.000382987
-0.000941825
-0.00151537
-0.00205149
0.00174603
0.00150714
0.00119305
0.000835063
0.000458418
2.69629e-05
-0.000437611
-0.000945525
-0.00145695
-0.00194209
0.00157526
0.00134367
0.00105006
0.000710429
0.000355803
-4.41736e-05
-0.000479424
-0.000945179
-0.00140467
-0.00184516
0.00142562
0.00120455
0.000925328
0.000605757
0.000269842
-0.000100931
-0.000504764
-0.00093081
-0.00134751
-0.00175107
0.00129917
0.00108658
0.000822577
0.000521432
0.000203385
-0.000143342
-0.000518672
-0.00091107
-0.00129314
-0.00166431
0.00118943
0.000984155
0.000733797
0.000449843
0.000148279
-0.000176954
-0.000525558
-0.000887008
-0.00123993
-0.00158417
0.00109932
0.00090121
0.000663665
0.000395162
0.00010892
-0.000197972
-0.000523583
-0.000859216
-0.0011885
-0.00151021
0.00102032
0.000826971
0.000601015
0.000347066
7.53547e-05
-0.000214517
-0.000519415
-0.000832448
-0.00114138
-0.00144411
0.000959728
0.000772345
0.000556574
0.000314975
5.58822e-05
-0.000219687
-0.000507962
-0.000803362
-0.00109637
-0.00138411
0.000903826
0.000719816
0.000513432
0.000284339
3.82408e-05
-0.000223296
-0.000496566
-0.000776884
-0.00105646
-0.00133187
0.000868103
0.000688887
0.000489717
0.000269791
3.33081e-05
-0.00021797
-0.000480407
-0.000750229
-0.00102044
-0.00128695
0.000831763
0.000657123
0.000466258
0.00025735
3.19432e-05
-0.000209139
-0.000461714
-0.000722782
-0.000986404
-0.00124693
0.000825829
0.000652797
0.000463678
0.000257682
3.58571e-05
-0.000201362
-0.000450028
-0.000707824
-0.000968829
-0.00122965
-0.00560857
-0.00588185
-0.00595032
-0.00599102
-0.00659771
-0.00857553
-0.0111265
-0.0129845
-0.0137245
-0.0132438
-0.0117699
-0.00953491
-0.00700319
-0.00432308
-0.00182532
0.000220183
0.00172428
0.00254842
0.00285461
0.00282892
0.0026374
0.00237722
0.00210186
0.00183756
0.0015955
0.00137734
0.00117988
0.000998997
0.000833576
0.000684684
0.000553853
0.000442451
0.000349674
0.000273667
0.000211263
0.00015961
0.000115857
7.78343e-05
4.42979e-05
1.36689e-05
-0.00575742
-0.00605097
-0.00607514
-0.00603449
-0.00719234
-0.0095476
-0.012074
-0.0138124
-0.0144495
-0.0138606
-0.0122715
-0.00995501
-0.00738249
-0.00471407
-0.0021639
-6.2621e-05
0.00151038
0.00238257
0.00272913
0.00272625
0.00255247
0.00230911
0.00204822
0.00179517
0.00156137
0.00134983
0.00115573
0.000977915
0.000815764
0.000670245
0.000543086
0.000435209
0.000345505
0.000271722
0.000210995
0.000160303
0.000117192
7.93002e-05
4.55335e-05
1.44404e-05
-0.00562869
-0.00589559
-0.00615735
-0.00670687
-0.00827476
-0.0108537
-0.0133297
-0.0149914
-0.015555
-0.0148432
-0.013075
-0.010642
-0.00801921
-0.00537879
-0.00281447
-0.000616335
0.0010543
0.00202995
0.00244447
0.00248743
0.00235006
0.00214183
0.00191165
0.00168292
0.00146897
0.00127473
0.00109802
0.000935557
0.000787107
0.000654481
0.000537954
0.000437293
0.000351742
0.000279777
0.00021923
0.0001677
0.000123225
8.38698e-05
4.84915e-05
1.57691e-05
-0.00525912
-0.00534276
-0.00531482
-0.00648696
-0.00905137
-0.0121188
-0.0146352
-0.0162622
-0.01674
-0.0158796
-0.0138974
-0.0113067
-0.00863663
-0.00604967
-0.00351572
-0.00127449
0.000461167
0.00153733
0.00203827
0.00215252
0.00207162
0.00191542
0.00173241
0.00154147
0.00135571
0.00118369
0.00102579
0.000879736
0.00074578
0.000625949
0.000519945
0.000427217
0.000346839
0.000277753
0.000218773
0.000168146
0.000124097
8.48784e-05
4.9194e-05
1.61181e-05
-0.00538063
-0.00570887
-0.00549454
-0.00681797
-0.00947267
-0.0126617
-0.0152624
-0.0170108
-0.0174719
-0.0165796
-0.0144829
-0.0117812
-0.00909524
-0.00654203
-0.00408563
-0.00187321
-0.00013406
0.000988042
0.00155301
0.00174795
0.00174042
0.00164561
0.00151561
0.00137027
0.00122126
0.00107733
0.000940733
0.00081242
0.000694579
0.000588614
0.000494865
0.000411522
0.000338095
0.000273844
0.00021774
0.000168559
0.00012501
8.58569e-05
5.00467e-05
1.64953e-05
-0.00474596
-0.00558135
-0.00473374
-0.00638117
-0.00933832
-0.0126502
-0.0154639
-0.0172827
-0.0177541
-0.0167657
-0.0146301
-0.0119598
-0.00933016
-0.00684832
-0.00447943
-0.00232432
-0.00063435
0.000472601
0.00106036
0.00132191
0.00139397
0.00137006
0.00129642
0.0011951
0.00108207
0.00096778
0.000855935
0.000746808
0.000643604
0.00055002
0.000466585
0.000391904
0.000324755
0.000264458
0.000210752
0.000163781
0.000121802
8.37856e-05
4.8851e-05
1.60998e-05
-0.00487703
-0.00568624
-0.00455621
-0.00615162
-0.00884099
-0.0120103
-0.0146764
-0.016423
-0.0169095
-0.016079
-0.0141661
-0.0117461
-0.0092993
-0.00696321
-0.00472064
-0.00265634
-0.00103496
3.98686e-05
0.000633737
0.000935626
0.00106732
0.00110174
0.00108059
0.00102382
0.000945752
0.000858562
0.00076832
0.000676906
0.000587293
0.000504063
0.000429927
0.000364311
0.000305518
0.000252209
0.000203596
0.000158815
0.000118355
8.16209e-05
4.77619e-05
1.57472e-05
-0.00483851
-0.00377966
-0.00416099
-0.00563712
-0.00829881
-0.0109884
-0.013337
-0.0149635
-0.0155193
-0.0149239
-0.0133245
-0.011222
-0.00900656
-0.00683632
-0.00474479
-0.00285064
-0.00137665
-0.000382686
0.000227592
0.000584064
0.000776796
0.000858858
0.000874357
0.000852333
0.000807405
0.000747439
0.000677438
0.000601995
0.000526536
0.000455742
0.000391262
0.000332291
0.000278059
0.000229222
0.000185559
0.000145972
0.00010969
7.60947e-05
4.4508e-05
1.47637e-05
-0.00401789
-0.00472645
-0.00500083
-0.00581439
-0.00792976
-0.0103064
-0.0123123
-0.0136623
-0.014112
-0.0135857
-0.012242
-0.0104023
-0.00839974
-0.00641683
-0.00453551
-0.0028743
-0.00159179
-0.000735137
-0.000160973
0.000225852
0.000472442
0.000615075
0.000674806
0.000682223
0.000662851
0.000627548
0.000578568
0.000519414
0.000457548
0.000398785
0.000344497
0.000295197
0.000250921
0.00021038
0.00017228
0.000136238
0.000102648
7.12771e-05
4.18194e-05
1.39878e-05
-0.00353345
-0.00416033
-0.00465425
-0.00569829
-0.00749141
-0.00941978
-0.0109721
-0.0119791
-0.0123268
-0.0119474
-0.0108246
-0.00925249
-0.00753175
-0.00581848
-0.00423444
-0.00285894
-0.00175451
-0.00097027
-0.000429244
-5.04341e-05
0.000201989
0.000360651
0.000453123
0.000497541
0.000508121
0.000496098
0.000468286
0.000428499
0.000382764
0.000337052
0.000294134
0.000252596
0.000212323
0.000175343
0.000142926
0.000114299
8.75976e-05
6.19606e-05
3.67294e-05
1.21461e-05
-0.0032704
-0.00394234
-0.00465525
-0.00557517
-0.00689566
-0.00830819
-0.00945966
-0.0102114
-0.0104751
-0.010178
-0.00931179
-0.00807246
-0.00667809
-0.00528119
-0.00398891
-0.00285189
-0.00190487
-0.00118456
-0.000662117
-0.000285466
-2.27212e-05
0.000149303
0.000253974
0.000316426
0.0003506
0.000361141
0.000353259
0.000331858
0.000303695
0.000275493
0.000245721
0.000213433
0.000182309
0.0001543
0.000128253
0.000102608
7.76257e-05
5.38992e-05
3.17413e-05
1.04722e-05
-0.00304315
-0.00367053
-0.00436119
-0.00518473
-0.00617472
-0.00722675
-0.00810969
-0.00868443
-0.00890398
-0.00869641
-0.00803838
-0.00707387
-0.00598928
-0.00487095
-0.00380159
-0.00283756
-0.00200783
-0.00135386
-0.000868923
-0.000509882
-0.000242005
-4.95652e-05
7.84215e-05
0.000161656
0.000213682
0.000240492
0.00024732
0.000239959
0.000225401
0.000208323
0.000189165
0.000167441
0.000143334
0.000119172
9.72806e-05
7.81125e-05
6.07633e-05
4.36451e-05
2.60834e-05
8.78274e-06
-0.00284948
-0.00341356
-0.00406217
-0.00479635
-0.00558137
-0.00638018
-0.00707099
-0.00753151
-0.00768147
-0.00752088
-0.00702693
-0.0062732
-0.0054071
-0.0045051
-0.00360728
-0.00278489
-0.00207627
-0.00149404
-0.00103807
-0.000686845
-0.000417545
-0.000216473
-7.2583e-05
2.61766e-05
9.04856e-05
0.000130832
0.000154812
0.000165328
0.0001635
0.000154837
0.000143909
0.000129717
0.000113107
9.80619e-05
8.57338e-05
7.31987e-05
5.81577e-05
4.08801e-05
2.36302e-05
7.88878e-06
-0.00267003
-0.00318544
-0.00376649
-0.00441227
-0.00506449
-0.00568732
-0.00621542
-0.00655604
-0.00668296
-0.00657142
-0.00620177
-0.00561487
-0.00491308
-0.00417396
-0.00343929
-0.00274523
-0.00212297
-0.00159446
-0.00117119
-0.000839764
-0.000579672
-0.000379417
-0.000231702
-0.000123316
-4.34974e-05
1.23219e-05
4.95156e-05
7.3492e-05
8.67536e-05
9.10588e-05
8.87154e-05
8.29604e-05
7.57418e-05
6.61289e-05
5.49179e-05
4.35308e-05
3.3694e-05
2.4998e-05
1.61755e-05
5.73489e-06
-0.00251023
-0.00297662
-0.00349228
-0.00406025
-0.00461581
-0.00511584
-0.00552744
-0.00580543
-0.00590394
-0.00581741
-0.00553547
-0.00507468
-0.00450588
-0.00389424
-0.00327892
-0.00269037
-0.00215012
-0.00167636
-0.00128632
-0.000975763
-0.000725408
-0.000523055
-0.000365326
-0.000245756
-0.000154517
-8.59985e-05
-3.68263e-05
-2.52946e-06
2.03824e-05
3.48117e-05
4.41687e-05
4.9763e-05
4.91812e-05
4.31853e-05
3.64276e-05
3.00656e-05
2.39284e-05
1.76408e-05
1.06453e-05
3.39146e-06
-0.00236274
-0.00278681
-0.00324602
-0.00374102
-0.00421689
-0.00463045
-0.00496093
-0.00518253
-0.00526653
-0.00520162
-0.00498163
-0.00461785
-0.00415707
-0.00365047
-0.0031315
-0.00262851
-0.00216135
-0.00174127
-0.00138179
-0.00108652
-0.000844829
-0.000645489
-0.00048353
-0.000355758
-0.000256893
-0.000180319
-0.000120763
-7.51192e-05
-4.25306e-05
-2.08018e-05
-5.88631e-06
4.68251e-06
1.12151e-05
1.4782e-05
1.74898e-05
1.95962e-05
1.90308e-05
1.5968e-05
1.08736e-05
3.94617e-06
-0.00222865
-0.00261469
-0.00302443
-0.00345643
-0.00386864
-0.00422145
-0.00449808
-0.00468049
-0.00475034
-0.00470149
-0.00452757
-0.00423677
-0.00386164
-0.00344082
-0.00300271
-0.00257043
-0.0021634
-0.0017919
-0.0014647
-0.00118777
-0.000955431
-0.000760803
-0.000599541
-0.00046701
-0.000359281
-0.0002736
-0.00020618
-0.000151681
-0.00010733
-7.34377e-05
-4.68393e-05
-2.78822e-05
-1.55783e-05
-7.39349e-06
-2.83772e-06
-4.7753e-07
4.83681e-07
5.74071e-07
1.52101e-07
-2.16603e-07
-0.00210672
-0.00245928
-0.00282642
-0.00320628
-0.00356586
-0.00387101
-0.00410714
-0.00426303
-0.0043253
-0.00428792
-0.00414823
-0.00391403
-0.0036076
-0.00325728
-0.00288729
-0.00251671
-0.00216099
-0.00183015
-0.00153168
-0.00127257
-0.00105055
-0.000859428
-0.000696395
-0.000559856
-0.00044593
-0.000350738
-0.000271997
-0.000208876
-0.000159794
-0.000120664
-9.0028e-05
-6.48165e-05
-4.45962e-05
-2.83936e-05
-1.60346e-05
-7.08402e-06
-1.39415e-06
1.65129e-06
2.44306e-06
1.18933e-06
-0.00199549
-0.00231923
-0.00265129
-0.00298787
-0.00330431
-0.0035734
-0.00377988
-0.00391576
-0.00397217
-0.00394593
-0.00383442
-0.00364281
-0.00339045
-0.00309917
-0.00278628
-0.00246759
-0.00215656
-0.00186256
-0.00159227
-0.00135084
-0.00113881
-0.000953416
-0.000791601
-0.00065146
-0.000531882
-0.00043159
-0.000347898
-0.000276915
-0.000216227
-0.000166589
-0.000126651
-9.48585e-05
-7.00469e-05
-5.12707e-05
-3.71665e-05
-2.65603e-05
-1.8436e-05
-1.22016e-05
-7.12007e-06
-2.58934e-06
-0.00189487
-0.00219488
-0.00249705
-0.00279841
-0.00308011
-0.0033195
-0.00350375
-0.0036247
-0.00367694
-0.0036585
-0.00356949
-0.00341393
-0.00320578
-0.00296246
-0.0026975
-0.00242352
-0.00215259
-0.0018921
-0.00164689
-0.00142189
-0.00121899
-0.00103736
-0.000875992
-0.000733408
-0.000607814
-0.000498243
-0.000404342
-0.000325431
-0.000259988
-0.000205616
-0.000160421
-0.000122841
-9.15136e-05
-6.60657e-05
-4.60217e-05
-3.05742e-05
-1.9068e-05
-1.07434e-05
-4.99843e-06
-1.40519e-06
-0.00180427
-0.00208458
-0.00236251
-0.00263532
-0.00288808
-0.00310356
-0.00326951
-0.00337924
-0.0034296
-0.00341823
-0.00334635
-0.00322002
-0.00304861
-0.00284449
-0.00262073
-0.00238766
-0.00215201
-0.00192027
-0.00169833
-0.00148974
-0.0012961
-0.00111829
-0.000956659
-0.00081067
-0.000679982
-0.000565405
-0.000466541
-0.000380941
-0.000306271
-0.00024274
-0.000190292
-0.000147438
-0.000112811
-8.51361e-05
-6.32397e-05
-4.59829e-05
-3.21576e-05
-2.10723e-05
-1.18944e-05
-4.05033e-06
-0.00172374
-0.00198826
-0.00224642
-0.00249613
-0.00272555
-0.00292064
-0.00307169
-0.00317261
-0.00322046
-0.00321506
-0.0031583
-0.00305465
-0.00291319
-0.00274453
-0.00255691
-0.00235755
-0.00215366
-0.00195034
-0.0017508
-0.00155708
-0.00137074
-0.0011949
-0.00103252
-0.000883723
-0.000747413
-0.000624418
-0.000515662
-0.000421396
-0.000340876
-0.000272669
-0.00021523
-0.000167124
-0.000127198
-9.46309e-05
-6.85534e-05
-4.80472e-05
-3.21634e-05
-1.99455e-05
-1.04732e-05
-3.19104e-06
-0.00165282
-0.00190494
-0.00214734
-0.00237828
-0.00258892
-0.00276775
-0.00290562
-0.00299849
-0.0030449
-0.00304398
-0.00299818
-0.002914
-0.00279858
-0.00265908
-0.00250267
-0.00233551
-0.00216198
-0.00198437
-0.00180458
-0.00162458
-0.00144662
-0.00127329
-0.00110784
-0.000952333
-0.000808597
-0.000678964
-0.000564522
-0.000464007
-0.000375694
-0.000299895
-0.000236222
-0.000183507
-0.000140426
-0.000105743
-7.81907e-05
-5.6404e-05
-3.9217e-05
-2.55224e-05
-1.43158e-05
-4.81791e-06
-0.00159175
-0.00183482
-0.00206512
-0.00228071
-0.00247489
-0.00263896
-0.00276616
-0.00285254
-0.00289648
-0.00289831
-0.00286207
-0.00279345
-0.00269883
-0.00258598
-0.00245991
-0.00232211
-0.00217516
-0.00202185
-0.00186196
-0.00169509
-0.00152307
-0.00135021
-0.00118107
-0.0010195
-0.000867853
-0.000728606
-0.000604399
-0.000495083
-0.000400401
-0.000319368
-0.00025107
-0.000194424
-0.000147992
-0.000110419
-8.03666e-05
-5.65537e-05
-3.78842e-05
-2.33398e-05
-1.21568e-05
-3.56298e-06
-0.00154041
-0.00177775
-0.00200024
-0.00220504
-0.00238592
-0.00253692
-0.00265373
-0.00273341
-0.00277431
-0.00277736
-0.00274739
-0.00269098
-0.00261482
-0.0025254
-0.00242626
-0.00231698
-0.00219767
-0.00206701
-0.00192233
-0.00176341
-0.00159403
-0.00141984
-0.00124583
-0.00107675
-0.000917053
-0.000769633
-0.000637049
-0.000520616
-0.000419716
-0.000333457
-0.000260855
-0.000200857
-0.000152093
-0.000112987
-8.21247e-05
-5.78996e-05
-3.91411e-05
-2.45235e-05
-1.31647e-05
-4.06638e-06
-0.00149681
-0.00173081
-0.00194771
-0.00214434
-0.00231611
-0.00245825
-0.00256697
-0.00264031
-0.00267711
-0.00267966
-0.00265395
-0.00260689
-0.00254556
-0.00247628
-0.00240134
-0.00232045
-0.00222881
-0.00211989
-0.00198799
-0.00183292
-0.00166076
-0.00147957
-0.00129604
-0.00111732
-0.000948416
-0.000793617
-0.000654725
-0.000532632
-0.000427144
-0.000337551
-0.000262546
-0.000200945
-0.000151052
-0.000111221
-7.97404e-05
-5.50541e-05
-3.59541e-05
-2.12508e-05
-1.04384e-05
-2.48986e-06
-0.00148165
-0.00171465
-0.00192738
-0.00211814
-0.00228435
-0.00242162
-0.00252615
-0.00259584
-0.00263013
-0.00263215
-0.00260789
-0.00256397
-0.00250785
-0.00244617
-0.00238084
-0.00230969
-0.0022274
-0.00212702
-0.00200227
-0.00185164
-0.00168101
-0.0014991
-0.0013142
-0.00113285
-0.000960918
-0.000803021
-0.000661509
-0.000537466
-0.000430439
-0.00033963
-0.000263593
-0.000201156
-0.000150557
-0.000110318
-7.8633e-05
-5.40142e-05
-3.51375e-05
-2.07725e-05
-1.02401e-05
-2.46871e-06
)
;

boundaryField
{
    inlet
    {
        type            zeroGradient;
    }
    outlet
    {
        type            fixedValue;
        value           uniform 0;
    }
    lowerWall
    {
        type            zeroGradient;
    }
    upperWall
    {
        type            zeroGradient;
    }
    defaultFaces
    {
        type            empty;
    }
}


// ************************************************************************* //
