/*--------------------------------*- C++ -*----------------------------------*\
| =========                 |                                                 |
| \\      /  F ield         | OpenFOAM: The Open Source CFD Toolbox           |
|  \\    /   O peration     | Version:  2112                                  |
|   \\  /    A nd           | Website:  www.openfoam.com                      |
|    \\/     M anipulation  |                                                 |
\*---------------------------------------------------------------------------*/
FoamFile
{
    version     2.0;
    format      ascii;
    arch        "LSB;label=32;scalar=64";
    class       volVectorField;
    location    "0.35";
    object      U;
}
// * * * * * * * * * * * * * * * * * * * * * * * * * * * * * * * * * * * * * //

dimensions      [0 1 -1 0 0 0 0];

internalField   nonuniform List<vector> 
1880
(
(0.0989332 0.000622895 0)
(0.098467 0.00114129 0)
(0.0971974 0.00130389 0)
(0.0959684 0.00133562 0)
(0.0939921 0.00134841 0)
(0.092559 0.00140478 0)
(0.0904046 0.0013724 0)
(0.0890533 0.00147049 0)
(0.0868273 0.00138522 0)
(0.0854252 0.00148167 0)
(0.0830765 0.00129611 0)
(0.0817308 0.00152066 0)
(0.0792257 0.00130029 0)
(0.0777996 0.00159556 0)
(0.0751717 0.00115027 0)
(0.0737558 0.00171617 0)
(0.0708427 0.00117057 0)
(0.0693683 0.00191624 0)
(0.0660531 0.00119954 0)
(0.0646519 0.0019024 0)
(0.0605796 0.00142656 0)
(0.0595338 0.00199259 0)
(0.0540082 0.00203516 0)
(0.0533775 0.0022602 0)
(0.046201 0.00224065 0)
(0.0454935 0.00259543 0)
(0.0374641 0.00206451 0)
(0.0357061 0.00367173 0)
(0.0268107 0.00220814 0)
(0.0227246 0.00524505 0)
(0.0995939 0.00079353 0)
(0.100756 0.00129282 0)
(0.100173 0.00176329 0)
(0.101465 0.00164239 0)
(0.10063 0.00194598 0)
(0.101715 0.00182548 0)
(0.100717 0.00216667 0)
(0.101539 0.00192988 0)
(0.100764 0.00241481 0)
(0.100975 0.00199788 0)
(0.100803 0.00260337 0)
(0.0999262 0.00204022 0)
(0.100809 0.00277698 0)
(0.0986488 0.00226055 0)
(0.100268 0.00296476 0)
(0.0975348 0.00249035 0)
(0.0987753 0.00315229 0)
(0.0964164 0.00294663 0)
(0.0970088 0.00321791 0)
(0.0945122 0.00391335 0)
(0.0949828 0.00328674 0)
(0.0916654 0.00469766 0)
(0.0919586 0.00426053 0)
(0.0886539 0.004951 0)
(0.0878825 0.00612924 0)
(0.0835536 0.00594882 0)
(0.0838525 0.00730784 0)
(0.0743754 0.00798669 0)
(0.0779771 0.00998923 0)
(0.0631057 0.00987983 0)
(0.0997521 0.000352505 0)
(0.10044 0.000523518 0)
(0.100311 0.00111315 0)
(0.100937 0.00102148 0)
(0.101085 0.00138895 0)
(0.101242 0.00134824 0)
(0.101703 0.00159774 0)
(0.10133 0.00153164 0)
(0.102165 0.00197281 0)
(0.101439 0.00154478 0)
(0.102408 0.00242499 0)
(0.101579 0.00162897 0)
(0.102519 0.00259197 0)
(0.10155 0.00224767 0)
(0.102436 0.00243815 0)
(0.101583 0.00294413 0)
(0.101992 0.00287119 0)
(0.101321 0.00296827 0)
(0.101548 0.00418742 0)
(0.100404 0.00286638 0)
(0.101388 0.00534418 0)
(0.0987306 0.00396414 0)
(0.100513 0.00602167 0)
(0.0974904 0.00540494 0)
(0.0980718 0.00819677 0)
(0.095768 0.0059826 0)
(0.0957099 0.0114032 0)
(0.0916675 0.00902764 0)
(0.0927037 0.0133677 0)
(0.0868077 0.0149237 0)
(0.0997748 0.00038419 0)
(0.100368 0.000389164 0)
(0.100031 0.0012289 0)
(0.10069 0.000877284 0)
(0.100568 0.00165003 0)
(0.100977 0.00118132 0)
(0.101162 0.00188178 0)
(0.10104 0.00144382 0)
(0.10174 0.0021043 0)
(0.101109 0.00167465 0)
(0.102071 0.00240186 0)
(0.101369 0.00192029 0)
(0.102183 0.00262666 0)
(0.101591 0.00236982 0)
(0.102199 0.00280459 0)
(0.101704 0.00292573 0)
(0.102268 0.003319 0)
(0.101376 0.00325799 0)
(0.102259 0.00434164 0)
(0.101136 0.0036321 0)
(0.101844 0.00542474 0)
(0.100731 0.00488752 0)
(0.101306 0.00638183 0)
(0.0997545 0.00649771 0)
(0.10066 0.00850146 0)
(0.0988146 0.00816558 0)
(0.0988529 0.0110823 0)
(0.0980763 0.0119869 0)
(0.0971833 0.014402 0)
(0.0950223 0.016141 0)
(0.099859 0.000247257 0)
(0.100224 0.000261464 0)
(0.100056 0.000819682 0)
(0.100435 0.000702165 0)
(0.100461 0.00117126 0)
(0.10075 0.00102111 0)
(0.100904 0.00144663 0)
(0.100978 0.00121073 0)
(0.101314 0.00182103 0)
(0.101206 0.00128281 0)
(0.101558 0.0023046 0)
(0.101497 0.00147244 0)
(0.101787 0.00260084 0)
(0.101649 0.00199464 0)
(0.101908 0.00280856 0)
(0.101874 0.00251123 0)
(0.101925 0.00361631 0)
(0.101889 0.00266135 0)
(0.101811 0.00488891 0)
(0.101926 0.00311801 0)
(0.101537 0.00584098 0)
(0.101781 0.00468857 0)
(0.101167 0.00685666 0)
(0.101425 0.00636472 0)
(0.100754 0.00922119 0)
(0.100915 0.00800092 0)
(0.100066 0.0120397 0)
(0.100386 0.011611 0)
(0.0996166 0.0152502 0)
(0.0997395 0.0162979 0)
(0.0998696 0.000224386 0)
(0.100202 0.000199939 0)
(0.100042 0.000745525 0)
(0.100331 0.000602795 0)
(0.100402 0.00110566 0)
(0.100563 0.000950642 0)
(0.100845 0.00134977 0)
(0.100747 0.00124378 0)
(0.101272 0.00160876 0)
(0.101021 0.00145669 0)
(0.101433 0.00201219 0)
(0.101473 0.00167318 0)
(0.101557 0.00243315 0)
(0.101761 0.00205478 0)
(0.101718 0.0028077 0)
(0.101957 0.00258491 0)
(0.101966 0.0035093 0)
(0.101961 0.00300968 0)
(0.101946 0.0046265 0)
(0.102252 0.00358843 0)
(0.101738 0.00569657 0)
(0.102256 0.00511373 0)
(0.101732 0.00678096 0)
(0.102007 0.00695967 0)
(0.101727 0.00892606 0)
(0.101942 0.00889821 0)
(0.101405 0.0115699 0)
(0.10202 0.0123224 0)
(0.101733 0.0149662 0)
(0.101829 0.0165488 0)
(0.0999026 0.000142182 0)
(0.100154 0.000210247 0)
(0.100054 0.000526015 0)
(0.100256 0.000553375 0)
(0.10034 0.000828718 0)
(0.100502 0.00084008 0)
(0.100704 0.0011124 0)
(0.100738 0.00104145 0)
(0.101108 0.00146328 0)
(0.101031 0.00117122 0)
(0.101329 0.00191337 0)
(0.101452 0.00140064 0)
(0.101552 0.00231996 0)
(0.10177 0.00183392 0)
(0.101722 0.0027205 0)
(0.102116 0.00234745 0)
(0.101991 0.0034902 0)
(0.102223 0.00281136 0)
(0.102152 0.00456771 0)
(0.102546 0.00355235 0)
(0.102165 0.00558565 0)
(0.102748 0.00502561 0)
(0.102282 0.00686462 0)
(0.102833 0.0067501 0)
(0.102594 0.00900514 0)
(0.10302 0.0087598 0)
(0.102763 0.0115094 0)
(0.103528 0.0119521 0)
(0.103413 0.0147692 0)
(0.104208 0.0156839 0)
(0.0999195 0.000103638 0)
(0.10012 0.000185995 0)
(0.100076 0.000402555 0)
(0.10019 0.000485809 0)
(0.10036 0.000648045 0)
(0.100406 0.000772946 0)
(0.100721 0.000883264 0)
(0.100651 0.00101786 0)
(0.101111 0.00118031 0)
(0.101014 0.0011939 0)
(0.101299 0.00161079 0)
(0.101513 0.00140525 0)
(0.101558 0.00209254 0)
(0.101844 0.00177164 0)
(0.101859 0.00255283 0)
(0.102178 0.0023181 0)
(0.102263 0.00323872 0)
(0.102395 0.00292721 0)
(0.102487 0.00422606 0)
(0.102883 0.00372151 0)
(0.102675 0.00526999 0)
(0.103198 0.00512939 0)
(0.103053 0.00657864 0)
(0.103513 0.00682623 0)
(0.103582 0.0086041 0)
(0.104034 0.00884426 0)
(0.104126 0.0109484 0)
(0.104814 0.0117557 0)
(0.105241 0.013984 0)
(0.10592 0.0152538 0)
(0.0999335 5.44563e-05 0)
(0.100102 0.000179761 0)
(0.100081 0.000274337 0)
(0.100177 0.000419918 0)
(0.100342 0.000482712 0)
(0.100407 0.000640963 0)
(0.100683 0.000727727 0)
(0.100672 0.000825985 0)
(0.10109 0.00104064 0)
(0.101048 0.000986176 0)
(0.101329 0.00143312 0)
(0.10156 0.00124189 0)
(0.101653 0.00186115 0)
(0.101941 0.00163933 0)
(0.101997 0.00232085 0)
(0.102365 0.00216642 0)
(0.102491 0.00301593 0)
(0.102648 0.00279691 0)
(0.102874 0.00394736 0)
(0.103227 0.00363541 0)
(0.103221 0.00497673 0)
(0.103729 0.00495005 0)
(0.103751 0.00630725 0)
(0.104272 0.0065668 0)
(0.104526 0.00820786 0)
(0.105044 0.00852986 0)
(0.105363 0.0104176 0)
(0.106162 0.0111442 0)
(0.106723 0.0132457 0)
(0.107673 0.0141968 0)
(0.0999476 2.09905e-05 0)
(0.10008 0.000155201 0)
(0.100098 0.00016329 0)
(0.100158 0.00034513 0)
(0.100361 0.00031152 0)
(0.1004 0.000533517 0)
(0.100697 0.000514611 0)
(0.100699 0.000707658 0)
(0.101105 0.000797102 0)
(0.101121 0.00086806 0)
(0.101372 0.00116613 0)
(0.101655 0.00111552 0)
(0.101785 0.00159155 0)
(0.102039 0.0015044 0)
(0.102231 0.00203277 0)
(0.102522 0.00205515 0)
(0.102787 0.00266406 0)
(0.102938 0.00272467 0)
(0.103248 0.00354892 0)
(0.103636 0.00354523 0)
(0.103774 0.00457172 0)
(0.104243 0.00476873 0)
(0.104489 0.00586528 0)
(0.104999 0.00630871 0)
(0.105443 0.00762393 0)
(0.106003 0.00818904 0)
(0.106547 0.00967106 0)
(0.107348 0.0105237 0)
(0.108148 0.0122119 0)
(0.10913 0.013294 0)
(0.0999568 -8.11191e-06 0)
(0.10007 0.000119006 0)
(0.100105 6.67268e-05 0)
(0.100167 0.00024326 0)
(0.10037 0.000171099 0)
(0.100435 0.000371239 0)
(0.100712 0.000350588 0)
(0.100765 0.000508081 0)
(0.101145 0.000605206 0)
(0.101213 0.0006684 0)
(0.101457 0.000917785 0)
(0.101771 0.000935204 0)
(0.101936 0.00129825 0)
(0.102196 0.00131978 0)
(0.102447 0.00172869 0)
(0.102752 0.00183323 0)
(0.103082 0.00234388 0)
(0.103255 0.00248821 0)
(0.103648 0.00317279 0)
(0.104066 0.00329743 0)
(0.104307 0.00414242 0)
(0.104804 0.00443341 0)
(0.105176 0.00537506 0)
(0.105728 0.00586777 0)
(0.106309 0.0070005 0)
(0.10693 0.0076142 0)
(0.107603 0.00889126 0)
(0.108487 0.00968849 0)
(0.109382 0.011163 0)
(0.110464 0.0120957 0)
(0.0999667 -3.26196e-05 0)
(0.10006 7.29183e-05 0)
(0.100118 -3.03537e-05 0)
(0.10018 0.000135655 0)
(0.100395 1.99741e-05 0)
(0.100481 0.000218744 0)
(0.100749 0.000161949 0)
(0.10085 0.000335508 0)
(0.101206 0.000386648 0)
(0.101329 0.000489701 0)
(0.101568 0.000660723 0)
(0.101905 0.000749359 0)
(0.102125 0.00100835 0)
(0.102362 0.00112417 0)
(0.102699 0.00140542 0)
(0.103004 0.00161977 0)
(0.103383 0.00198062 0)
(0.103611 0.00224203 0)
(0.104039 0.00276845 0)
(0.10451 0.00300875 0)
(0.104849 0.00367772 0)
(0.105344 0.00406365 0)
(0.105851 0.00481629 0)
(0.106436 0.00538908 0)
(0.107121 0.00629973 0)
(0.107804 0.00698941 0)
(0.108584 0.00802767 0)
(0.109512 0.00882755 0)
(0.110508 0.0100168 0)
(0.111621 0.0109531 0)
(0.0999737 -5.37729e-05 0)
(0.100058 8.88306e-06 0)
(0.100134 -0.000130142 0)
(0.100211 -7.6115e-06 0)
(0.100433 -0.000141322 0)
(0.100554 1.24746e-05 0)
(0.100814 -4.95735e-05 0)
(0.100964 9.22164e-05 0)
(0.101304 0.000127915 0)
(0.101469 0.00022974 0)
(0.101711 0.000347976 0)
(0.102072 0.000474402 0)
(0.102326 0.000658953 0)
(0.102574 0.000817682 0)
(0.102957 0.00103581 0)
(0.103291 0.00126873 0)
(0.103702 0.00157261 0)
(0.103979 0.00185201 0)
(0.104443 0.0022982 0)
(0.10497 0.00258531 0)
(0.105373 0.00313389 0)
(0.105897 0.0035459 0)
(0.106494 0.00417956 0)
(0.10712 0.00474598 0)
(0.107882 0.0055255 0)
(0.108629 0.00619512 0)
(0.109476 0.0070868 0)
(0.110457 0.00781837 0)
(0.111513 0.00882132 0)
(0.112661 0.00964643 0)
(0.0999803 -7.54987e-05 0)
(0.100056 -6.09789e-05 0)
(0.100152 -0.000231412 0)
(0.100246 -0.000146817 0)
(0.10048 -0.000291687 0)
(0.100637 -0.000166221 0)
(0.100894 -0.000231442 0)
(0.101092 -0.000101884 0)
(0.101424 -8.23295e-05 0)
(0.101627 2.60356e-05 0)
(0.101886 0.000101136 0)
(0.10226 0.000255168 0)
(0.102557 0.000380149 0)
(0.102814 0.000571628 0)
(0.103238 0.000727878 0)
(0.103611 0.000980657 0)
(0.104033 0.00121564 0)
(0.104371 0.00150479 0)
(0.104866 0.00187784 0)
(0.105433 0.002191 0)
(0.105906 0.00263035 0)
(0.106446 0.00305667 0)
(0.107117 0.00356677 0)
(0.107796 0.00412068 0)
(0.108606 0.0047704 0)
(0.109408 0.00541155 0)
(0.11031 0.00616218 0)
(0.111322 0.0068474 0)
(0.112432 0.00766495 0)
(0.113583 0.00842614 0)
(0.0999859 -0.000104835 0)
(0.100067 -0.000170068 0)
(0.10019 -0.00038322 0)
(0.100318 -0.000363688 0)
(0.100573 -0.00052095 0)
(0.100774 -0.000443061 0)
(0.101036 -0.000511103 0)
(0.101274 -0.000409839 0)
(0.101601 -0.000407639 0)
(0.101832 -0.000314784 0)
(0.102108 -0.000275646 0)
(0.102494 -0.0001271 0)
(0.102819 -4.05024e-05 0)
(0.103097 0.000141671 0)
(0.103548 0.000270291 0)
(0.103955 0.000499182 0)
(0.104388 0.000697577 0)
(0.104775 0.000970003 0)
(0.105305 0.00129178 0)
(0.105909 0.00160418 0)
(0.106435 0.00196292 0)
(0.106998 0.00236365 0)
(0.107724 0.00279825 0)
(0.108444 0.00330365 0)
(0.109292 0.00386731 0)
(0.110142 0.00445033 0)
(0.111095 0.00509763 0)
(0.112131 0.00571007 0)
(0.113284 0.00639014 0)
(0.114438 0.00704252 0)
(0.0999901 -0.000128663 0)
(0.100078 -0.000257065 0)
(0.100236 -0.000487624 0)
(0.100407 -0.000502506 0)
(0.100695 -0.000651043 0)
(0.10094 -0.000598869 0)
(0.101216 -0.000663972 0)
(0.101487 -0.000585536 0)
(0.101817 -0.000598197 0)
(0.102073 -0.000523047 0)
(0.102378 -0.00050521 0)
(0.10277 -0.000365057 0)
(0.103128 -0.000306302 0)
(0.10343 -0.000132021 0)
(0.103911 -2.42668e-05 0)
(0.104352 0.000182505 0)
(0.104801 0.000343721 0)
(0.105227 0.000591412 0)
(0.105798 0.000867701 0)
(0.106413 0.00116724 0)
(0.106999 0.00145163 0)
(0.107588 0.00181974 0)
(0.108364 0.00217815 0)
(0.109118 0.00261965 0)
(0.109997 0.0030929 0)
(0.110865 0.0036117 0)
(0.11187 0.00416454 0)
(0.112904 0.00472635 0)
(0.114102 0.00529649 0)
(0.115231 0.00587851 0)
(0.0999933 -0.000215276 0)
(0.10012 -0.000513151 0)
(0.100338 -0.000816241 0)
(0.10057 -0.000890947 0)
(0.100894 -0.00103692 0)
(0.10118 -0.00101496 0)
(0.101465 -0.00107795 0)
(0.101756 -0.00102424 0)
(0.102096 -0.00105146 0)
(0.102371 -0.000998437 0)
(0.102715 -0.000988136 0)
(0.103098 -0.000859506 0)
(0.103492 -0.000815863 0)
(0.103812 -0.000668351 0)
(0.10433 -0.000579339 0)
(0.104769 -0.000413505 0)
(0.105242 -0.000279923 0)
(0.105679 -6.10704e-05 0)
(0.10631 0.000164276 0)
(0.106912 0.000418302 0)
(0.107569 0.000639278 0)
(0.108155 0.000965542 0)
(0.108984 0.0012832 0)
(0.109725 0.00166715 0)
(0.110665 0.00207075 0)
(0.111527 0.00251237 0)
(0.112631 0.0029716 0)
(0.113651 0.00345179 0)
(0.114929 0.00392318 0)
(0.116025 0.0044065 0)
(0.0999887 -0.000237534 0)
(0.10023 -0.000587539 0)
(0.10057 -0.000858108 0)
(0.100933 -0.000944475 0)
(0.101296 -0.00106914 0)
(0.10163 -0.00107378 0)
(0.101905 -0.00114124 0)
(0.102209 -0.00112373 0)
(0.102537 -0.00116907 0)
(0.102823 -0.00114764 0)
(0.103174 -0.00113367 0)
(0.103528 -0.00103925 0)
(0.103914 -0.00103029 0)
(0.104219 -0.000920571 0)
(0.104727 -0.000844558 0)
(0.105124 -0.000715253 0)
(0.1056 -0.00061369 0)
(0.105994 -0.000436446 0)
(0.106637 -0.000251229 0)
(0.107173 -3.48726e-05 0)
(0.107876 0.000148706 0)
(0.108436 0.000442354 0)
(0.109294 0.000702738 0)
(0.10999 0.00100057 0)
(0.110957 0.00131812 0)
(0.111783 0.00168679 0)
(0.112941 0.00208557 0)
(0.113953 0.00253592 0)
(0.115284 0.00296706 0)
(0.116402 0.00341452 0)
(0.0999748 -0.000694536 0)
(0.100352 -0.00135556 0)
(0.100704 -0.00157565 0)
(0.101102 -0.00160849 0)
(0.101316 -0.00168191 0)
(0.101578 -0.00171906 0)
(0.101622 -0.00176649 0)
(0.101818 -0.00175999 0)
(0.10188 -0.00178306 0)
(0.10202 -0.00176989 0)
(0.102041 -0.00171704 0)
(0.102206 -0.00163187 0)
(0.102246 -0.00162397 0)
(0.102387 -0.0015502 0)
(0.102491 -0.00148592 0)
(0.102644 -0.00137812 0)
(0.102718 -0.001266 0)
(0.102968 -0.00111423 0)
(0.10325 -0.000993591 0)
(0.103603 -0.000862746 0)
(0.103892 -0.000727097 0)
(0.104296 -0.000477375 0)
(0.104771 -0.000252767 0)
(0.105422 -1.37814e-05 0)
(0.106141 0.000199657 0)
(0.107038 0.000446564 0)
(0.107982 0.000692021 0)
(0.109096 0.00101928 0)
(0.110246 0.00133001 0)
(0.111594 0.00169493 0)
(0.0990208 -0.000606276 0)
(0.098452 -0.00114094 0)
(0.0974299 -0.00127565 0)
(0.0960105 -0.00128363 0)
(0.0943744 -0.00130376 0)
(0.0927811 -0.00131897 0)
(0.0911197 -0.00132546 0)
(0.0896115 -0.00132146 0)
(0.0880138 -0.00131258 0)
(0.0864963 -0.00126078 0)
(0.0849442 -0.00118779 0)
(0.0835911 -0.0011664 0)
(0.0820805 -0.0011591 0)
(0.0807696 -0.00108081 0)
(0.0794181 -0.000984077 0)
(0.0782916 -0.000926233 0)
(0.07705 -0.000908173 0)
(0.0760969 -0.0008566 0)
(0.0750667 -0.000773675 0)
(0.0743246 -0.000652925 0)
(0.073492 -0.000521456 0)
(0.0730706 -0.00041583 0)
(0.0725618 -0.000376005 0)
(0.0724626 -0.00033672 0)
(0.0721876 -0.000260193 0)
(0.0724204 -9.80386e-05 0)
(0.0725053 0.000123243 0)
(0.0732535 0.000364606 0)
(0.0738353 0.000571058 0)
(0.075173 0.000733242 0)
(0.0133847 0.00361985 0)
(0.043306 0.0140941 0)
(0.0366462 0.0149502 0)
(0.0638634 0.0256907 8.84462e-22)
(0.051348 0.021924 6.8797e-22)
(0.0845705 0.0353398 0)
(0.0620431 0.029156 2.80378e-22)
(0.10303 0.0420405 3.6153e-23)
(0.0779011 0.036433 6.12073e-22)
(0.123703 0.045779 0)
(0.0670155 0.0140129 0)
(0.0765532 0.0219018 0)
(0.0822905 0.023293 0)
(0.090905 0.0351571 0)
(0.0918942 0.032614 0)
(0.103999 0.044726 1.84289e-22)
(0.103656 0.0399625 5.6535e-23)
(0.118161 0.050557 -7.77578e-23)
(0.121355 0.0487513 -4.76299e-22)
(0.139548 0.055877 -4.73985e-22)
(0.0871959 0.0211369 0)
(0.090949 0.0212593 0)
(0.0941589 0.0288893 0)
(0.0982015 0.0325636 0)
(0.102553 0.0368169 0)
(0.109097 0.0352815 -1.84287e-22)
(0.115683 0.0444823 -5.65348e-23)
(0.120149 0.0367875 7.77577e-23)
(0.126357 0.0412707 2.5216e-22)
(0.139825 0.0443352 4.73992e-22)
(0.0959043 0.0209296 -3.86467e-22)
(0.0973024 0.0248651 0)
(0.100148 0.0258425 -3.11485e-22)
(0.103466 0.0310174 -2.59345e-22)
(0.108685 0.0338352 -1.8066e-22)
(0.112704 0.0332314 0)
(0.118432 0.0404523 0)
(0.124653 0.0415112 1.28695e-22)
(0.127921 0.0385506 2.66591e-22)
(0.13765 0.0367836 4.22965e-22)
(0.0986626 0.0212895 3.86468e-22)
(0.10167 0.0218259 0)
(0.104144 0.0272513 3.11486e-22)
(0.106996 0.0284398 2.59346e-22)
(0.111318 0.0332144 1.8066e-22)
(0.115404 0.0297832 0)
(0.118654 0.0362444 0)
(0.127242 0.0345819 -1.28695e-22)
(0.132569 0.0334666 -2.66593e-22)
(0.138938 0.0312538 -4.2297e-22)
(0.102299 0.020042 0)
(0.104019 0.022144 -2.79948e-22)
(0.10646 0.0246567 0)
(0.109784 0.0260745 -1.84856e-22)
(0.113916 0.0297618 0)
(0.118035 0.028306 0)
(0.121416 0.0323807 0)
(0.128455 0.0326676 -1.47483e-22)
(0.133026 0.0311129 0)
(0.137302 0.0276946 0)
(0.104305 0.0195415 2.757e-22)
(0.106596 0.0200464 5.27948e-22)
(0.109157 0.023619 2.06156e-22)
(0.112213 0.0239066 1.84856e-22)
(0.115444 0.0274027 0)
(0.119705 0.0259519 -2.65298e-23)
(0.122908 0.0288661 0)
(0.12895 0.0279572 1.47483e-22)
(0.133983 0.0272193 0)
(0.137697 0.0245024 0)
(0.10661 0.0179566 -2.75701e-22)
(0.108658 0.0190223 -2.48e-22)
(0.111024 0.0215365 -2.06156e-22)
(0.114114 0.0219415 0)
(0.117287 0.0244935 0)
(0.121187 0.02365 2.65298e-23)
(0.124532 0.0255771 0)
(0.129495 0.0253555 0)
(0.134079 0.0247692 0)
(0.137307 0.0215992 0)
(0.108444 0.0168154 0)
(0.110443 0.017342 -1.95927e-22)
(0.112835 0.0197107 0)
(0.115755 0.0198565 -1.12034e-22)
(0.118667 0.0219877 0)
(0.122232 0.0214715 0)
(0.125537 0.0228015 7.24269e-23)
(0.129841 0.0217455 1.53919e-22)
(0.134098 0.0215059 0)
(0.137227 0.019343 3.28513e-22)
(0.110121 0.0152435 0)
(0.11203 0.0158833 1.95927e-22)
(0.114303 0.0177423 0)
(0.11707 0.0179609 1.12034e-22)
(0.119867 0.0195181 0)
(0.12308 0.0190528 0)
(0.126411 0.0200573 -7.24271e-23)
(0.130236 0.0193831 -1.53919e-22)
(0.133746 0.0190875 0)
(0.136778 0.0166691 -3.28514e-22)
(0.111571 0.0138018 9.12623e-23)
(0.113378 0.0142845 0)
(0.115583 0.015811 0)
(0.118175 0.0159513 4.08556e-23)
(0.120852 0.0172357 0)
(0.123819 0.0169281 0)
(0.126878 0.0175883 0)
(0.130287 0.016596 -7.49725e-23)
(0.133636 0.0164277 0)
(0.136533 0.014618 0)
(0.11282 0.0122666 -7.91085e-24)
(0.114553 0.012733 0)
(0.116661 0.0139695 5.4908e-23)
(0.119082 0.0141259 -5.65119e-24)
(0.121613 0.0150494 0)
(0.124376 0.0147475 0)
(0.127303 0.0152792 -4.12366e-23)
(0.130379 0.0144648 7.49727e-23)
(0.133277 0.0141703 -1.06379e-22)
(0.135975 0.0124332 -1.40891e-22)
(0.113928 0.0107394 -6.6936e-24)
(0.115582 0.0111296 0)
(0.117583 0.0121139 -5.60634e-24)
(0.119861 0.0122276 -4.57672e-24)
(0.122268 0.0129829 9.58484e-24)
(0.124821 0.0127325 1.43769e-23)
(0.127503 0.0130542 -1.93929e-25)
(0.130327 0.0122375 -7.10792e-23)
(0.133041 0.0119787 4.39436e-24)
(0.135541 0.0105511 6.68353e-24)
(0.114876 0.00928995 -7.66582e-23)
(0.11647 0.00963906 0)
(0.118371 0.0104344 -4.93018e-23)
(0.120502 0.0105365 -3.06278e-23)
(0.122767 0.011085 -9.58485e-24)
(0.125175 0.0108427 -3.01942e-23)
(0.127691 0.0110616 4.14306e-23)
(0.130253 0.0103494 7.10793e-23)
(0.132719 0.0100271 1.01985e-22)
(0.135059 0.00875647 1.34207e-22)
(0.115765 0.00774499 0)
(0.117295 0.00803886 0)
(0.119087 0.00867228 0)
(0.121075 0.00875326 0)
(0.123206 0.00918077 0)
(0.125435 0.00897051 1.58173e-23)
(0.127763 0.00907995 0)
(0.130129 0.00844767 0)
(0.132432 0.00813889 0)
(0.134606 0.00707662 0)
(0.116567 0.00645001 0)
(0.118021 0.00671104 0)
(0.119737 0.00721218 0)
(0.121578 0.00727593 0)
(0.123596 0.00756852 0)
(0.125667 0.0073558 8.49332e-24)
(0.127855 0.00737117 0)
(0.130023 0.0068106 0)
(0.132174 0.00647691 0)
(0.134199 0.00556235 0)
(0.117415 0.00487027 0)
(0.118725 0.00510862 0)
(0.120373 0.00550883 1.76954e-23)
(0.12198 0.00558111 0)
(0.123897 0.00579314 1.33319e-24)
(0.125724 0.00561973 -8.49333e-24)
(0.127807 0.00558399 0)
(0.129742 0.00511654 -3.10803e-23)
(0.131808 0.00480643 0)
(0.133631 0.00406312 0)
(0.11784 0.0038121 0)
(0.118854 0.00403606 0)
(0.120533 0.00432063 -1.76954e-23)
(0.121787 0.00436012 0)
(0.123721 0.00443628 -1.33319e-24)
(0.125162 0.004233 0)
(0.127252 0.00409744 0)
(0.128761 0.00366225 3.10805e-23)
(0.13082 0.00332272 0)
(0.132184 0.00269714 0)
(0.112986 0.00200798 -6.93986e-24)
(0.113543 0.00223709 -5.62672e-24)
(0.115283 0.00245858 -4.10099e-24)
(0.116074 0.0025415 0)
(0.118133 0.00257984 -3.15835e-25)
(0.119039 0.00245683 0)
(0.121235 0.00231906 4.50063e-24)
(0.122031 0.00202149 0)
(0.124127 0.00173753 1.02641e-23)
(0.124527 0.00131626 1.34267e-23)
(0.0762483 0.000812971 6.93907e-24)
(0.07693 0.000814621 5.62602e-24)
(0.0784493 0.000782432 4.10046e-24)
(0.0793305 0.000714573 0)
(0.0810621 0.00061708 3.1579e-25)
(0.0818489 0.000495986 0)
(0.0835148 0.000352629 -4.4999e-24)
(0.0838901 0.000191222 0)
(0.0852179 1.02272e-05 -1.02622e-23)
(0.0848343 -0.000168479 -1.34242e-23)
(0.00837905 -0.000411799 0)
(0.0143373 0.00656261 0)
(0.00659494 0.00663734 0)
(0.00334879 0.00586348 0)
(-0.0341283 0.0174546 0)
(-0.0786079 0.0159279 0)
(-0.10622 0.0107913 0)
(-0.123798 0.00660439 0)
(-0.133453 0.00393397 0)
(-0.133192 0.000180199 0)
(-0.12913 -0.00139756 0)
(-0.116234 -0.00409173 0)
(-0.103524 -0.00507629 0)
(-0.0816068 -0.00648132 0)
(-0.0624919 -0.00694328 0)
(-0.0381127 -0.00705952 0)
(-0.0159094 -0.0066006 0)
(0.00468732 -0.00551984 0)
(0.0216038 -0.00421138 0)
(0.0351387 -0.00297365 0)
(0.0455137 -0.00192741 0)
(0.0533029 -0.00106193 0)
(0.0589118 -0.000315576 0)
(0.0626086 0.000338774 0)
(0.0644935 0.000897454 0)
(0.0648134 0.00133754 0)
(0.0638419 0.00162194 0)
(0.0619738 0.00171253 0)
(0.0595412 0.0016328 0)
(0.0569675 0.00143697 0)
(0.054466 0.00118329 0)
(0.0522746 0.00091898 0)
(0.0503953 0.000679031 0)
(0.0489007 0.000477896 0)
(0.0476976 0.000323331 0)
(0.046766 0.00020764 0)
(0.046066 0.000131263 0)
(0.0454567 7.72875e-05 0)
(0.0451175 5.15928e-05 0)
(0.0445999 3.55568e-05 0)
(0.00687839 -0.0170361 0)
(0.0142722 -0.00474696 0)
(0.0112583 0.000989902 0)
(-0.0292039 0.0247494 0)
(-0.0688474 0.0380646 0)
(-0.099146 0.0331675 0)
(-0.115212 0.0213659 0)
(-0.127596 0.0131925 0)
(-0.131371 0.00382444 0)
(-0.128108 -0.00366221 0)
(-0.121449 -0.0106858 0)
(-0.105439 -0.0153573 0)
(-0.0926897 -0.0198038 0)
(-0.0702604 -0.0234805 0)
(-0.0511354 -0.0251583 0)
(-0.0262298 -0.0260282 0)
(-0.00382644 -0.0242565 0)
(0.0174646 -0.0212474 0)
(0.0350198 -0.0174431 0)
(0.049271 -0.0138466 0)
(0.0606352 -0.0107867 0)
(0.0698072 -0.00824926 0)
(0.077125 -0.00607688 0)
(0.083055 -0.00414599 0)
(0.0876589 -0.00240061 0)
(0.0911284 -0.000860465 0)
(0.0933356 0.000422449 0)
(0.0945041 0.0013336 0)
(0.0947699 0.00190463 0)
(0.0945933 0.0021339 0)
(0.0941231 0.00212427 0)
(0.0936436 0.00193036 0)
(0.0931605 0.00168995 0)
(0.0927484 0.00139984 0)
(0.0924092 0.0011714 0)
(0.0920513 0.000926701 0)
(0.0918282 0.000781441 0)
(0.0914441 0.000597601 0)
(0.0913228 0.00052977 0)
(0.0908712 0.000392102 0)
(0.0020476 -0.0149461 0)
(-0.0145475 0.0045917 0)
(-0.031988 0.0368744 0)
(-0.0479542 0.058058 0)
(-0.0693455 0.0638165 0)
(-0.0816405 0.0489073 0)
(-0.0929663 0.0325783 0)
(-0.0997772 0.0192026 0)
(-0.101668 0.00562019 0)
(-0.0960919 -0.00714528 0)
(-0.0879083 -0.0176745 0)
(-0.0733286 -0.025686 0)
(-0.0596091 -0.0307694 0)
(-0.042835 -0.0365552 0)
(-0.0253165 -0.0399704 0)
(-0.00577918 -0.0416907 0)
(0.0134692 -0.0392426 0)
(0.031934 -0.0340822 0)
(0.0473949 -0.0275634 0)
(0.0592587 -0.0216574 0)
(0.0683717 -0.0169056 0)
(0.0758892 -0.0130755 0)
(0.0819234 -0.00993909 0)
(0.0868172 -0.0073402 0)
(0.0908781 -0.00502243 0)
(0.0946496 -0.00284515 0)
(0.0978976 -0.000855797 0)
(0.100489 0.000682562 0)
(0.102077 0.0016494 0)
(0.102928 0.00201738 0)
(0.103195 0.00200478 0)
(0.10332 0.00172979 0)
(0.103358 0.00143142 0)
(0.103486 0.00110113 0)
(0.103636 0.000888006 0)
(0.103824 0.000676033 0)
(0.104009 0.000590949 0)
(0.104143 0.000473515 0)
(0.10425 0.000454774 0)
(0.104296 0.000385271 0)
(0.00416076 -0.0077442 0)
(-0.0124327 0.0219674 0)
(-0.016435 0.029979 0)
(-0.0356819 0.0561378 0)
(-0.0485547 0.0620901 0)
(-0.0551442 0.0495776 0)
(-0.0624166 0.0345313 0)
(-0.0655198 0.0193443 0)
(-0.064692 0.00240011 0)
(-0.0574431 -0.0134888 0)
(-0.046774 -0.0271627 0)
(-0.0326511 -0.0360873 0)
(-0.01935 -0.0417927 0)
(-0.00513064 -0.0477121 0)
(0.00804262 -0.0520337 0)
(0.022367 -0.0541316 0)
(0.0356536 -0.0520246 0)
(0.0484347 -0.0458919 0)
(0.0606692 -0.0370394 0)
(0.070248 -0.0286507 0)
(0.0766012 -0.0224629 0)
(0.0818125 -0.0177097 0)
(0.0866133 -0.0136 0)
(0.0904473 -0.0103002 0)
(0.0928938 -0.00786288 0)
(0.0949568 -0.00583312 0)
(0.0972824 -0.00374223 0)
(0.100071 -0.00164992 0)
(0.102619 0.000130275 0)
(0.104625 0.00124593 0)
(0.105742 0.00174181 0)
(0.106296 0.0017046 0)
(0.106388 0.00147033 0)
(0.106415 0.00110508 0)
(0.106367 0.000846866 0)
(0.106449 0.000596176 0)
(0.106514 0.000495981 0)
(0.106683 0.000392405 0)
(0.10676 0.00038007 0)
(0.10693 0.000350895 0)
(0.01124 -0.0115337 0)
(-0.0143995 0.0169923 0)
(-0.0182768 0.0465997 0)
(-0.0173473 0.0725743 0)
(-0.0162821 0.0768197 0)
(-0.0146501 0.0627108 0)
(-0.0202873 0.0434231 0)
(-0.0199507 0.0227802 0)
(-0.0173124 0.00148274 0)
(-0.0103441 -0.0195192 0)
(-0.00115275 -0.0356033 0)
(0.00992027 -0.0456871 0)
(0.0207664 -0.0508046 0)
(0.0324715 -0.055303 0)
(0.0429133 -0.059066 0)
(0.0527292 -0.061399 0)
(0.0614828 -0.0586576 0)
(0.0672544 -0.0523492 0)
(0.0725689 -0.0433163 0)
(0.0790966 -0.0329397 0)
(0.0835014 -0.0250661 0)
(0.0857416 -0.0202764 0)
(0.0883742 -0.016178 0)
(0.0918986 -0.011847 0)
(0.0944051 -0.00827708 0)
(0.0953637 -0.00605881 0)
(0.0956479 -0.00458701 0)
(0.0966518 -0.00317592 0)
(0.0985026 -0.00160562 0)
(0.100958 -0.000205764 0)
(0.103225 0.000823146 0)
(0.105074 0.00130222 0)
(0.106194 0.00140084 0)
(0.106855 0.00117213 0)
(0.107089 0.000911249 0)
(0.107225 0.000611366 0)
(0.107237 0.000450082 0)
(0.107314 0.000320263 0)
(0.107322 0.000289911 0)
(0.107417 0.000264788 0)
(0.00442423 -0.00322054 0)
(-0.015205 0.0483834 0)
(0.00706268 0.036438 0)
(0.00916781 0.0608044 0)
(0.0163398 0.0627462 0)
(0.0217271 0.0509943 0)
(0.0239874 0.0353524 0)
(0.0283014 0.0161783 0)
(0.032832 -0.00449572 0)
(0.0387121 -0.025332 0)
(0.0445101 -0.0416811 0)
(0.0490234 -0.0517632 0)
(0.0537675 -0.0575862 0)
(0.0598189 -0.0616693 0)
(0.0686623 -0.065241 0)
(0.0754633 -0.0671765 0)
(0.0808658 -0.062977 0)
(0.0846036 -0.0540193 0)
(0.0838217 -0.0455516 0)
(0.0845684 -0.0363046 0)
(0.0879849 -0.0268918 0)
(0.0897902 -0.0209077 0)
(0.0899682 -0.0177956 0)
(0.0913828 -0.0144519 0)
(0.0939621 -0.0102002 0)
(0.0958493 -0.00658548 0)
(0.0959717 -0.00451517 0)
(0.0954072 -0.00356853 0)
(0.0952927 -0.00286893 0)
(0.0964096 -0.00208022 0)
(0.0983828 -0.00116157 0)
(0.100835 -0.000402494 0)
(0.103056 0.000181286 0)
(0.104898 0.000424115 0)
(0.106104 0.000536859 0)
(0.106887 0.000450501 0)
(0.107254 0.000401005 0)
(0.107457 0.000306999 0)
(0.107504 0.000282792 0)
(0.107529 0.000269979 0)
(-0.0590442 -0.00666262 0)
(-0.00436767 0.0120461 0)
(-0.00115494 0.0228004 0)
(0.0349874 0.0609206 0)
(0.0538116 0.0680176 0)
(0.0671696 0.0594424 0)
(0.0736009 0.0421816 0)
(0.0788068 0.0195488 0)
(0.082738 -0.00419811 0)
(0.0859186 -0.0251935 0)
(0.0859988 -0.0409065 0)
(0.0852193 -0.0518139 0)
(0.0845723 -0.0584774 0)
(0.0866605 -0.0653479 0)
(0.0915274 -0.0701501 0)
(0.0957275 -0.0702211 0)
(0.0948762 -0.0651906 0)
(0.0946992 -0.0538542 0)
(0.0929786 -0.0427579 0)
(0.0889193 -0.0356405 0)
(0.0884511 -0.0286765 0)
(0.0909363 -0.0216447 0)
(0.0921838 -0.0171579 0)
(0.0922383 -0.014515 0)
(0.0930655 -0.0113859 0)
(0.0950048 -0.00752345 0)
(0.096493 -0.00433067 0)
(0.0968533 -0.00274319 0)
(0.0963517 -0.00238629 0)
(0.0961021 -0.00248672 0)
(0.0965444 -0.00238539 0)
(0.0979187 -0.00204998 0)
(0.099776 -0.00147714 0)
(0.101877 -0.000968733 0)
(0.103753 -0.000479198 0)
(0.105284 -0.000185991 0)
(0.106345 6.67554e-05 0)
(0.106996 0.000159351 0)
(0.107357 0.000246215 0)
(0.10751 0.000241042 0)
(0.103702 0.0408556 0)
(0.0754848 0.0160094 0)
(0.0486802 0.00935702 0)
(0.0462101 0.0251794 0)
(0.0667355 0.0379433 0)
(0.0843993 0.0374187 0)
(0.0988 0.0273563 0)
(0.108737 0.0107451 0)
(0.114802 -0.00882822 0)
(0.116137 -0.0273582 0)
(0.115644 -0.0416897 0)
(0.113738 -0.0526194 0)
(0.113016 -0.0600839 0)
(0.115939 -0.066186 0)
(0.116382 -0.0716354 0)
(0.114463 -0.0707797 0)
(0.109958 -0.0634194 0)
(0.103524 -0.0525864 0)
(0.0997572 -0.0404476 0)
(0.0961921 -0.0320138 0)
(0.0927311 -0.0275831 0)
(0.0921747 -0.0233192 0)
(0.0935051 -0.0186809 0)
(0.0944585 -0.0149792 0)
(0.0947481 -0.0120365 0)
(0.0955935 -0.00894947 0)
(0.0971534 -0.00578476 0)
(0.0989471 -0.00339917 0)
(0.100167 -0.00222694 0)
(0.100771 -0.00211768 0)
(0.100813 -0.00241929 0)
(0.100854 -0.00276016 0)
(0.101075 -0.00274789 0)
(0.10178 -0.002528 0)
(0.1028 -0.00198476 0)
(0.104029 -0.00147198 0)
(0.105174 -0.00087399 0)
(0.106111 -0.000452319 0)
(0.106724 -0.000110245 0)
(0.107186 0.000149672 0)
(0.138722 0.0416583 0)
(0.134163 0.0402444 0)
(0.125851 0.0410942 0)
(0.109621 0.0424256 0)
(0.109055 0.0385063 0)
(0.11587 0.0317779 0)
(0.125897 0.0210195 0)
(0.134902 0.00687882 0)
(0.140717 -0.00982377 0)
(0.142111 -0.0268119 0)
(0.142454 -0.0408478 0)
(0.143847 -0.0506958 0)
(0.141823 -0.0594419 0)
(0.138836 -0.06611 0)
(0.134974 -0.0679842 0)
(0.124037 -0.0657487 0)
(0.113053 -0.0577639 0)
(0.105706 -0.0471328 0)
(0.101379 -0.0380617 0)
(0.100336 -0.0309196 0)
(0.100236 -0.025676 0)
(0.0995761 -0.0218039 0)
(0.0986907 -0.0184862 0)
(0.0982592 -0.0153007 0)
(0.0983512 -0.0121923 0)
(0.0989656 -0.00927616 0)
(0.0998299 -0.0067971 0)
(0.101024 -0.00499878 0)
(0.102455 -0.0037921 0)