/*--------------------------------*- C++ -*----------------------------------*\
| =========                 |                                                 |
| \\      /  F ield         | OpenFOAM: The Open Source CFD Toolbox           |
|  \\    /   O peration     | Version:  2112                                  |
|   \\  /    A nd           | Website:  www.openfoam.com                      |
|    \\/     M anipulation  |                                                 |
\*---------------------------------------------------------------------------*/
FoamFile
{
    version     2.0;
    format      ascii;
    arch        "LSB;label=32;scalar=64";
    class       volScalarField;
    location    "0.01";
    object      nut;
}
// * * * * * * * * * * * * * * * * * * * * * * * * * * * * * * * * * * * * * //

dimensions      [0 2 -1 0 0 0 0];

internalField   nonuniform List<scalar> 
1880
(
8.47806e-10
3.6567e-09
2.37904e-09
6.86429e-11
1.34981e-12
1.62064e-14
1.8055e-15
9.4998e-20
8.20034e-19
4.80642e-18
1.27125e-17
2.88724e-17
5.65062e-17
1.03706e-16
1.97494e-16
3.71136e-16
7.07164e-16
1.39312e-15
2.78424e-15
5.82809e-15
1.29955e-14
3.09082e-14
8.05789e-14
2.40782e-13
8.51614e-13
3.90683e-12
2.08281e-11
2.03849e-10
1.10873e-09
2.0769e-08
9.85294e-08
2.1298e-07
1.69839e-07
4.78812e-08
9.70823e-09
1.26488e-10
1.59999e-11
2.61965e-13
1.60679e-12
4.72618e-12
1.0429e-11
2.08781e-11
4.03928e-11
7.53049e-11
1.38961e-10
2.5339e-10
4.50942e-10
7.84466e-10
1.32298e-09
2.14676e-09
3.3472e-09
5.02095e-09
7.27067e-09
1.02508e-08
1.41241e-08
1.95574e-08
2.62064e-08
3.95385e-08
5.2937e-08
1.00516e-07
9.8038e-08
2.12085e-07
1.69728e-07
5.07325e-08
1.23717e-08
3.34394e-09
1.59738e-09
6.93921e-10
7.71823e-10
8.89168e-10
1.02665e-09
1.19209e-09
1.39415e-09
1.63968e-09
1.93525e-09
2.29494e-09
2.73412e-09
3.27039e-09
3.93165e-09
4.75516e-09
5.78753e-09
7.09663e-09
8.77654e-09
1.0967e-08
1.3815e-08
1.7723e-08
2.2475e-08
3.03454e-08
3.56665e-08
5.16357e-08
1.01106e-07
2.11315e-07
1.69032e-07
5.15113e-08
1.33268e-08
3.34323e-09
1.55021e-09
6.05032e-10
7.01669e-10
8.30245e-10
9.77148e-10
1.15159e-09
1.35506e-09
1.59941e-09
1.89602e-09
2.25098e-09
2.67927e-09
3.20181e-09
3.84095e-09
4.62805e-09
5.60478e-09
6.82677e-09
8.36678e-09
1.03331e-08
1.28269e-08
1.61467e-08
2.03018e-08
2.64671e-08
3.50252e-08
4.36056e-08
1.02136e-07
2.10787e-07
1.68837e-07
5.19187e-08
1.39412e-08
3.39642e-09
1.57542e-09
5.24894e-10
6.40712e-10
7.83151e-10
9.34612e-10
1.11191e-09
1.32291e-09
1.5684e-09
1.85951e-09
2.20813e-09
2.62655e-09
3.13215e-09
3.74564e-09
4.49314e-09
5.40889e-09
6.53893e-09
7.94091e-09
9.69223e-09
1.18696e-08
1.4622e-08
1.81753e-08
2.25812e-08
2.92423e-08
3.46501e-08
1.02674e-07
2.10495e-07
1.68721e-07
5.22011e-08
1.43774e-08
3.3886e-09
1.59877e-09
4.71598e-10
5.94805e-10
7.39117e-10
9.01429e-10
1.08206e-09
1.29052e-09
1.53471e-09
1.82205e-09
2.16306e-09
2.57009e-09
3.05659e-09
3.64007e-09
4.34464e-09
5.20014e-09
6.24056e-09
7.50715e-09
9.05492e-09
1.09447e-08
1.32249e-08
1.62537e-08
1.96067e-08
2.60453e-08
2.87295e-08
1.02918e-07
2.10382e-07
1.68628e-07
5.24469e-08
1.47262e-08
3.38689e-09
1.57726e-09
4.38738e-10
5.68692e-10
7.15386e-10
8.76239e-10
1.05737e-09
1.26331e-09
1.50382e-09
1.78652e-09
2.11961e-09
2.51196e-09
2.97546e-09
3.52932e-09
4.194e-09
4.98937e-09
5.94014e-09
7.07915e-09
8.4444e-09
1.00882e-08
1.1987e-08
1.45936e-08
1.70743e-08
2.3073e-08
2.4394e-08
1.03019e-07
2.10398e-07
1.68515e-07
5.26584e-08
1.50849e-08
3.28119e-09
1.67267e-09
4.36201e-10
5.65844e-10
7.07607e-10
8.63865e-10
1.03984e-09
1.24281e-09
1.48083e-09
1.75598e-09
2.07504e-09
2.45083e-09
2.89589e-09
3.42314e-09
4.04519e-09
4.77845e-09
5.64612e-09
6.67318e-09
7.88012e-09
9.31035e-09
1.08999e-08
1.31399e-08
1.49718e-08
2.04379e-08
2.06285e-08
1.03042e-07
2.10491e-07
1.68317e-07
5.2895e-08
1.53462e-08
3.16849e-09
1.64894e-09
4.61883e-10
5.81145e-10
7.09374e-10
8.59159e-10
1.03369e-09
1.2337e-09
1.4613e-09
1.72408e-09
2.033e-09
2.39618e-09
2.82103e-09
3.31765e-09
3.89733e-09
4.5751e-09
5.36951e-09
6.29698e-09
7.36649e-09
8.61398e-09
9.9589e-09
1.18657e-08
1.32334e-08
1.79413e-08
1.7684e-08
1.03004e-07
2.10659e-07
1.68114e-07
5.31274e-08
1.56117e-08
3.06181e-09
1.63018e-09
4.94134e-10
6.03929e-10
7.2591e-10
8.69555e-10
1.03486e-09
1.22461e-09
1.4438e-09
1.69963e-09
1.99849e-09
2.34512e-09
2.74728e-09
3.21494e-09
3.75836e-09
4.38847e-09
5.11605e-09
5.95224e-09
6.90203e-09
7.99584e-09
9.14952e-09
1.07651e-08
1.18348e-08
1.58309e-08
1.51779e-08
1.02929e-07
2.10868e-07
1.67865e-07
5.3377e-08
1.58548e-08
2.98053e-09
1.64582e-09
5.35452e-10
6.37442e-10
7.48785e-10
8.82482e-10
1.03921e-09
1.2214e-09
1.43274e-09
1.67965e-09
1.96588e-09
2.29611e-09
2.67849e-09
3.12061e-09
3.63023e-09
4.21595e-09
4.8839e-09
5.64133e-09
6.49083e-09
7.45579e-09
8.45674e-09
9.82827e-09
1.06877e-08
1.39885e-08
1.31974e-08
1.02812e-07
2.11126e-07
1.67585e-07
5.36174e-08
1.60538e-08
2.94176e-09
1.6333e-09
5.79892e-10
6.733e-10
7.72656e-10
8.97257e-10
1.0456e-09
1.22023e-09
1.42396e-09
1.6613e-09
1.93551e-09
2.25209e-09
2.61706e-09
3.03535e-09
3.51348e-09
4.05833e-09
4.67457e-09
5.36618e-09
6.1321e-09
6.98923e-09
7.86781e-09
9.03277e-09
9.75802e-09
1.24129e-08
1.17807e-08
1.02647e-07
2.11431e-07
1.67284e-07
5.38444e-08
1.62201e-08
2.96064e-09
1.59707e-09
6.19814e-10
7.03499e-10
7.92386e-10
9.10625e-10
1.05268e-09
1.22015e-09
1.41659e-09
1.6447e-09
1.90757e-09
2.21112e-09
2.56029e-09
2.95836e-09
3.41025e-09
3.91984e-09
4.49002e-09
5.12438e-09
5.82036e-09
6.58887e-09
7.37073e-09
8.36564e-09
9.0019e-09
1.10827e-08
1.07108e-08
1.02405e-07
2.1179e-07
1.66966e-07
5.40544e-08
1.63569e-08
3.01834e-09
1.57112e-09
6.49632e-10
7.25469e-10
8.0734e-10
9.2002e-10
1.05672e-09
1.21829e-09
1.40796e-09
1.62817e-09
1.88266e-09
2.17535e-09
2.5098e-09
2.88939e-09
3.31774e-09
3.79761e-09
4.33054e-09
4.91815e-09
5.55627e-09
6.25092e-09
6.95383e-09
7.80785e-09
8.38838e-09
9.98443e-09
9.86582e-09
1.02041e-07
2.12238e-07
1.66648e-07
5.42324e-08
1.64693e-08
3.07928e-09
1.55877e-09
6.66048e-10
7.36845e-10
8.14293e-10
9.22816e-10
1.05545e-09
1.21316e-09
1.39815e-09
1.61265e-09
1.86058e-09
2.14429e-09
2.46591e-09
2.82967e-09
3.23827e-09
3.6931e-09
4.19505e-09
4.74374e-09
5.33404e-09
5.9683e-09
6.60904e-09
7.3516e-09
7.89455e-09
9.10114e-09
9.17941e-09
1.01368e-07
2.12792e-07
1.66375e-07
5.43111e-08
1.65013e-08
3.12288e-09
1.55974e-09
6.64457e-10
7.33913e-10
8.10092e-10
9.17518e-10
1.04915e-09
1.20527e-09
1.38746e-09
1.59796e-09
1.8401e-09
2.11634e-09
2.42845e-09
2.77971e-09
3.17225e-09
3.60661e-09
4.08307e-09
4.60014e-09
5.15258e-09
5.73915e-09
6.33109e-09
6.98484e-09
7.5014e-09
8.41017e-09
8.62563e-09
1.00248e-07
2.13591e-07
1.66348e-07
5.42667e-08
1.65503e-08
3.12105e-09
1.55934e-09
6.41324e-10
7.14312e-10
7.93674e-10
9.04445e-10
1.03815e-09
1.19456e-09
1.3759e-09
1.58478e-09
1.82297e-09
2.09281e-09
2.39746e-09
2.73929e-09
3.11924e-09
3.53764e-09
3.99429e-09
4.48681e-09
5.00972e-09
5.55865e-09
6.11334e-09
6.7004e-09
7.19895e-09
7.89464e-09
8.1962e-09
9.68708e-08
2.1443e-07
1.66673e-07
5.38834e-08
1.62555e-08
2.99253e-09
1.68741e-09
5.77437e-10
6.66914e-10
7.57432e-10
8.76284e-10
1.01517e-09
1.17449e-09
1.35659e-09
1.5643e-09
1.80023e-09
2.06666e-09
2.36641e-09
2.7012e-09
3.07174e-09
3.47878e-09
3.92125e-09
4.39569e-09
4.89715e-09
5.41937e-09
5.94654e-09
6.48504e-09
6.96971e-09
7.52528e-09
7.88106e-09
9.72204e-08
2.15334e-07
1.66967e-07
5.02316e-08
9.46308e-09
1.99972e-10
3.48162e-11
3.29799e-12
1.8029e-12
1.25546e-12
9.92612e-13
7.89705e-13
5.71528e-13
3.19633e-13
9.58525e-14
2.97973e-15
5.97144e-14
1.11603e-12
6.5177e-12
2.3902e-11
6.68119e-11
1.54206e-10
3.07041e-10
5.40787e-10
8.61301e-10
1.26199e-09
1.72519e-09
2.21582e-09
2.79695e-09
3.19113e-09
8.44136e-10
3.66411e-09
2.37263e-09
6.85151e-11
1.40794e-12
1.54217e-14
1.89468e-15
2.31986e-17
1.39228e-17
1.21022e-17
1.38552e-17
1.75779e-17
2.40296e-17
3.41977e-17
4.83553e-17
6.74498e-17
9.31649e-17
1.26799e-16
1.68567e-16
2.16461e-16
2.68157e-16
3.20019e-16
3.6002e-16
3.79143e-16
3.74529e-16
3.33867e-16
2.58845e-16
1.846e-16
2.20463e-17
3.57553e-17
1.82536e-08
1.12273e-10
1.51807e-10
1.16262e-11
8.84677e-13
2.82929e-11
9.23462e-12
4.29381e-08
1.57233e-08
6.61818e-07
1.06479e-07
1.07336e-07
5.23171e-08
5.75208e-08
6.39207e-08
5.57752e-08
1.6709e-07
1.85633e-07
5.58414e-07
6.10165e-07
1.35334e-07
5.80146e-08
7.44185e-08
7.05928e-08
7.40665e-08
8.04825e-08
8.99781e-08
1.21247e-07
1.71774e-07
1.0288e-07
6.53045e-08
6.50503e-08
4.8116e-08
5.81514e-08
6.58378e-08
6.97371e-08
1.14567e-07
8.21688e-08
2.69271e-07
1.35215e-07
6.49799e-08
4.15718e-08
5.19817e-08
5.56856e-08
6.04659e-08
6.43449e-08
6.73547e-08
7.42884e-08
8.62869e-08
8.539e-08
4.91319e-08
4.05607e-08
3.41893e-08
3.72e-08
4.30578e-08
5.17221e-08
6.29719e-08
5.99106e-08
7.79111e-08
6.41045e-08
4.17806e-08
3.41372e-08
3.05054e-08
3.22527e-08
3.50763e-08
3.76558e-08
3.95199e-08
4.12033e-08
4.1083e-08
4.31126e-08
3.41481e-08
3.14759e-08
2.65159e-08
2.76671e-08
3.12451e-08
3.33683e-08
3.44358e-08
3.49574e-08
3.54623e-08
3.27066e-08
2.57078e-08
2.94783e-08
2.34395e-08
2.3491e-08
2.56032e-08
2.69217e-08
2.73339e-08
2.71175e-08
2.69009e-08
2.63468e-08
1.99412e-08
2.63124e-08
2.06355e-08
2.01685e-08
2.16364e-08
2.26274e-08
2.26664e-08
2.21087e-08
2.15162e-08
2.13258e-08
1.60509e-08
2.24365e-08
1.78773e-08
1.73579e-08
1.83011e-08
1.88685e-08
1.86189e-08
1.79126e-08
1.72443e-08
1.76175e-08
1.34854e-08
1.92106e-08
1.54946e-08
1.49864e-08
1.5536e-08
1.57626e-08
1.53369e-08
1.45862e-08
1.38982e-08
1.47076e-08
1.18804e-08
1.65194e-08
1.35061e-08
1.29952e-08
1.32453e-08
1.31916e-08
1.26397e-08
1.18889e-08
1.12242e-08
1.23677e-08
1.07712e-08
1.42654e-08
1.18752e-08
1.13349e-08
1.13454e-08
1.10706e-08
1.04199e-08
9.67292e-09
9.05568e-09
1.03829e-08
9.91876e-09
1.23554e-08
1.05514e-08
9.97049e-09
9.77419e-09
9.31857e-09
8.58006e-09
7.82328e-09
7.26194e-09
8.58518e-09
9.22439e-09
1.07627e-08
9.48468e-09
8.86986e-09
8.48837e-09
7.87337e-09
7.04258e-09
6.25076e-09
5.73387e-09
6.83356e-09
8.66197e-09
9.50536e-09
8.64521e-09
8.0101e-09
7.46347e-09
6.69567e-09
5.7561e-09
4.88857e-09
4.37916e-09
5.09399e-09
8.23759e-09
8.60256e-09
8.03433e-09
7.40185e-09
6.7254e-09
5.8292e-09
4.77414e-09
3.79122e-09
3.24697e-09
3.61076e-09
3.64578e-09
3.95204e-09
3.43398e-09
2.70855e-09
2.04317e-09
1.42428e-09
9.11283e-10
5.79083e-10
4.07278e-10
2.99443e-10
1.03607e-16
6.97486e-16
1.04588e-15
1.15953e-15
1.77661e-15
3.6711e-15
6.96815e-15
8.26877e-15
8.5976e-15
2.75776e-15
3.46468e-08
2.58123e-08
4.53452e-09
8.20404e-10
1.9978e-10
5.27614e-11
1.48913e-11
4.48391e-12
1.43708e-12
4.89432e-13
1.76868e-13
6.76676e-14
2.73901e-14
1.17017e-14
5.22588e-15
2.42682e-15
1.17341e-15
5.86475e-16
3.01007e-16
1.5981e-16
8.77319e-17
4.87777e-17
2.71371e-17
1.52975e-17
8.83517e-18
5.2033e-18
3.11381e-18
1.89368e-18
1.16123e-18
7.10417e-19
4.33786e-19
2.67496e-19
1.69369e-19
1.11836e-19
7.70483e-20
5.51507e-20
4.29653e-20
2.88081e-20
3.90764e-20
8.1185e-21
4.81534e-08
1.10458e-07
9.74632e-08
8.16144e-08
6.75315e-08
5.33929e-08
4.10816e-08
3.09443e-08
2.27632e-08
1.62243e-08
1.10804e-08
7.16993e-09
4.36223e-09
2.4924e-09
1.34488e-09
6.93173e-10
3.46366e-10
1.70128e-10
8.31009e-11
4.07955e-11
2.02651e-11
1.01976e-11
5.20148e-12
2.70154e-12
1.43425e-12
7.77517e-13
4.29284e-13
2.41055e-13
1.3743e-13
7.94468e-14
4.66575e-14
2.79766e-14
1.7237e-14
1.0954e-14
7.19959e-15
4.8576e-15
3.53834e-15
2.28083e-15
3.15509e-15
6.74017e-16
5.10192e-08
1.29209e-07
1.11329e-07
8.66962e-08
7.03803e-08
5.47026e-08
4.19214e-08
3.21072e-08
2.47256e-08
1.92086e-08
1.50736e-08
1.19492e-08
9.56362e-09
7.72146e-09
6.28287e-09
5.14737e-09
4.2423e-09
3.51467e-09
2.92514e-09
2.44387e-09
2.04813e-09
1.7207e-09
1.44843e-09
1.22107e-09
1.03045e-09
8.69875e-10
7.3385e-10
6.1791e-10
5.18458e-10
4.32719e-10
3.58562e-10
2.9419e-10
2.38088e-10
1.8883e-10
1.45709e-10
1.06654e-10
7.38153e-11
4.1356e-11
3.23645e-11
5.09488e-12
1.16783e-07
1.74641e-07
1.35888e-07
9.65735e-08
7.56443e-08
5.6874e-08
4.25663e-08
3.21213e-08
2.45214e-08
1.89633e-08
1.48526e-08
1.17694e-08
9.42323e-09
7.61335e-09
6.19955e-09
5.08232e-09
4.1906e-09
3.47298e-09
2.89105e-09
2.41559e-09
2.02436e-09
1.70072e-09
1.43192e-09
1.20791e-09
1.02059e-09
8.63415e-10
7.31084e-10
6.19184e-10
5.24161e-10
4.43303e-10
3.74485e-10
3.15811e-10
2.65504e-10
2.21315e-10
1.78956e-10
1.23417e-10
5.74839e-11
1.62731e-11
6.2556e-12
4.21326e-13
2.94806e-07
1.76135e-07
2.11083e-07
1.10319e-07
8.33218e-08
5.94891e-08
4.31123e-08
3.19211e-08
2.41255e-08
1.85773e-08
1.45365e-08
1.15285e-08
9.24587e-09
7.48477e-09
6.10714e-09
5.01634e-09
4.14352e-09
3.43929e-09
2.86691e-09
2.39824e-09
2.01196e-09
1.69199e-09
1.42588e-09
1.20382e-09
1.01796e-09
8.61888e-10
7.30371e-10
6.19123e-10
5.24729e-10
4.44519e-10
3.76329e-10
3.18258e-10
2.68581e-10
2.25246e-10
1.84764e-10
1.35203e-10
7.36845e-11
2.544e-11
1.3292e-11
1.26845e-12
2.23366e-06
7.16218e-08
2.42864e-07
1.73911e-07
9.21355e-08
6.2182e-08
4.33112e-08
3.13651e-08
2.34766e-08
1.80286e-08
1.4118e-08
1.12224e-08
9.02584e-09
7.3276e-09
5.99506e-09
4.93658e-09
4.0868e-09
3.39885e-09
2.83804e-09
2.37771e-09
1.99741e-09
1.68174e-09
1.41882e-09
1.19915e-09
1.01502e-09
8.60219e-10
7.29685e-10
6.19276e-10
5.2565e-10
4.46159e-10
3.78652e-10
3.21262e-10
2.72321e-10
2.29941e-10
1.91337e-10
1.47554e-10
9.3232e-11
3.96039e-11
2.6518e-11
3.23543e-12
4.73126e-06
1.88679e-08
3.88772e-07
1.98971e-07
1.35868e-07
7.1725e-08
4.38939e-08
3.04378e-08
2.25209e-08
1.72923e-08
1.35885e-08
1.08482e-08
8.76209e-09
7.14156e-09
5.86324e-09
4.84263e-09
4.01974e-09
3.35101e-09
2.80382e-09
2.35314e-09
1.97986e-09
1.66938e-09
1.41026e-09
1.19331e-09
1.01117e-09
8.57891e-10
7.28586e-10
6.19182e-10
5.26419e-10
4.47723e-10
3.80984e-10
3.24363e-10
2.76225e-10
2.34812e-10
1.9788e-10
1.58842e-10
1.12644e-10
5.79768e-11
4.66884e-11
6.92306e-12
4.20697e-06
2.11826e-07
3.95473e-07
2.1477e-07
1.21828e-07
6.65671e-08
4.06194e-08
2.883e-08
2.18738e-08
1.70829e-08
1.35742e-08
1.09235e-08
8.87842e-09
7.27392e-09
5.998e-09
4.97243e-09
4.14083e-09
3.46153e-09
2.90318e-09
2.44161e-09
2.05812e-09
1.73822e-09
1.47055e-09
1.24598e-09
1.05714e-09
8.98035e-10
7.63677e-10
6.49937e-10
5.53519e-10
4.71797e-10
4.02576e-10
3.43945e-10
2.94232e-10
2.51728e-10
2.14499e-10
1.77476e-10
1.3679e-10
8.2988e-11
7.57731e-11
1.36322e-11
4.11434e-07
1.41974e-08
1.00371e-07
1.57641e-07
8.10852e-08
4.406e-08
3.19292e-08
2.51508e-08
1.99489e-08
1.59171e-08
1.28149e-08
1.04103e-08
8.52428e-09
7.02641e-09
5.82343e-09
4.84857e-09
4.05271e-09
3.39868e-09
2.8582e-09
2.40943e-09
2.03521e-09
1.72204e-09
1.45923e-09
1.23821e-09
1.05202e-09
8.94897e-10
7.62047e-10
6.49523e-10
5.54164e-10
4.73394e-10
4.05033e-10
3.47197e-10
2.98278e-10
2.56699e-10
2.20812e-10
1.86808e-10
1.52214e-10
1.04527e-10
1.0265e-10
2.26632e-11
4.3819e-07
8.44507e-08
1.4984e-07
9.47207e-08
6.25939e-08
4.14199e-08
2.98168e-08
2.30742e-08
1.83514e-08
1.47937e-08
1.20408e-08
9.8754e-09
8.15118e-09
6.76376e-09
5.63717e-09
4.71578e-09
3.95772e-09
3.33058e-09
2.80925e-09
2.37421e-09
2.00993e-09
1.70399e-09
1.44644e-09
1.22928e-09
1.04596e-09
8.90974e-10
7.5975e-10
6.48538e-10
5.54298e-10
4.745e-10
4.06983e-10
3.49912e-10
3.01747e-10
2.61012e-10
2.26232e-10
1.94396e-10
1.63986e-10
1.22207e-10
1.24378e-10
3.33016e-11
1.64466e-07
8.71699e-08
8.73953e-08
6.50027e-08
4.14594e-08
3.113e-08
2.50968e-08
2.04024e-08
1.66561e-08
1.36626e-08
1.12661e-08
9.33674e-09
7.77248e-09
6.4954e-09
5.44595e-09
4.57893e-09
3.85942e-09
3.2598e-09
2.75823e-09
2.33741e-09
1.9834e-09
1.68493e-09
1.43284e-09
1.2197e-09
1.03934e-09
8.86556e-10
7.57011e-10
6.47136e-10
5.53997e-10
4.75113e-10
4.08371e-10
3.51999e-10
3.04512e-10
2.64508e-10
2.30605e-10
2.00307e-10
1.72631e-10
1.35352e-10
1.39987e-10
4.3955e-11
8.10988e-08
6.6813e-08
5.37505e-08
4.15464e-08
3.31806e-08
2.70813e-08
2.2209e-08
1.83039e-08
1.51595e-08
1.26062e-08
1.05208e-08
8.80901e-09
7.39683e-09
6.22674e-09
5.25323e-09
4.44029e-09
3.75935e-09
3.18741e-09
2.70584e-09
2.29947e-09
1.95592e-09
1.66505e-09
1.41855e-09
1.20952e-09
1.03219e-09
8.8165e-10
7.53802e-10
6.45249e-10
5.53157e-10
4.75114e-10
4.09073e-10
3.53324e-10
3.06423e-10
2.67016e-10
2.33766e-10
2.04516e-10
1.78535e-10
1.44222e-10
1.50267e-10
5.29123e-11
6.39969e-08
5.02821e-08
4.13377e-08
3.32538e-08
2.76613e-08
2.31502e-08
1.94449e-08
1.63564e-08
1.37743e-08
1.16174e-08
9.81321e-09
8.30119e-09
7.03138e-09
5.96304e-09
5.06261e-09
4.30228e-09
3.65922e-09
3.11465e-09
2.65294e-09
2.26097e-09
1.92787e-09
1.64465e-09
1.40377e-09
1.19889e-09
1.02459e-09
8.76297e-10
7.50125e-10
6.42846e-10
5.51733e-10
4.7445e-10
4.09026e-10
3.53807e-10
3.07374e-10
2.68413e-10
2.35598e-10
2.07002e-10
1.81955e-10
1.49305e-10
1.56162e-10
5.88887e-11
5.78272e-08
3.59533e-08
3.06182e-08
2.6667e-08
2.32363e-08
1.99538e-08
1.70992e-08
1.46442e-08
1.25272e-08
1.07092e-08
9.1524e-09
7.82048e-09
6.68163e-09
5.70842e-09
4.87709e-09
4.16703e-09
3.56056e-09
3.04265e-09
2.60032e-09
2.22246e-09
1.89968e-09
1.62404e-09
1.38874e-09
1.18795e-09
1.01665e-09
8.70548e-10
7.45997e-10
6.39926e-10
5.49711e-10
4.73103e-10
4.08199e-10
3.53398e-10
3.07301e-10
2.68623e-10
2.36033e-10
2.07751e-10
1.83026e-10
1.50949e-10
1.58258e-10
6.11842e-11
4.30249e-08
2.79251e-08
2.51617e-08
2.2134e-08
1.96622e-08
1.7254e-08
1.50731e-08
1.31342e-08
1.1409e-08
9.88285e-09
8.5427e-09
7.37155e-09
6.35159e-09
5.46599e-09
4.69909e-09
4.03641e-09
3.46477e-09
2.97238e-09
2.5487e-09
2.1845e-09
1.87176e-09
1.60351e-09
1.37367e-09
1.17688e-09
1.00848e-09
8.64481e-10
7.41469e-10
6.36522e-10
5.47115e-10
4.71085e-10
4.06596e-10
3.52089e-10
3.06186e-10
2.67626e-10
2.35052e-10
2.0676e-10
1.81791e-10
1.49276e-10
1.56767e-10
5.95827e-11
3.67094e-08
2.17856e-08
2.01605e-08
1.83543e-08
1.67026e-08
1.49803e-08
1.33362e-08
1.18151e-08
1.04149e-08
9.13809e-09
7.98635e-09
6.95727e-09
6.04406e-09
5.23821e-09
4.53065e-09
3.91204e-09
3.37305e-09
2.90472e-09
2.49874e-09
2.14759e-09
1.8445e-09
1.58338e-09
1.35878e-09
1.16581e-09
1.00018e-09
8.58188e-10
7.36621e-10
6.32697e-10
5.43997e-10
4.68441e-10
4.04254e-10
3.49915e-10
3.04061e-10
2.65453e-10
2.32684e-10
2.04041e-10
1.78213e-10
1.44179e-10
1.51567e-10
5.42648e-11
3.01775e-08
1.74285e-08
1.64267e-08
1.53538e-08
1.42788e-08
1.30731e-08
1.18526e-08
1.06699e-08
9.5383e-09
8.47252e-09
7.4839e-09
6.57936e-09
5.76093e-09
5.02685e-09
4.37333e-09
3.79519e-09
3.28637e-09
2.84044e-09
2.45106e-09
2.11222e-09
1.81828e-09
1.56392e-09
1.34427e-09
1.1549e-09
9.91889e-10
8.51776e-10
7.31543e-10
6.28535e-10
5.40436e-10
4.65249e-10
4.01251e-10
3.46952e-10
3.01008e-10
2.62187e-10
2.28998e-10
1.99611e-10
1.72159e-10
1.35327e-10
1.42182e-10
4.58578e-11
2.52221e-08
1.41466e-08
1.34707e-08
1.29247e-08
1.22865e-08
1.14765e-08
1.0591e-08
9.68204e-09
8.7721e-09
7.88342e-09
7.03453e-09
6.23844e-09
5.50343e-09
4.83324e-09
4.22831e-09
3.68686e-09
3.20557e-09
2.78021e-09
2.40621e-09
2.07885e-09
1.79344e-09
1.54538e-09
1.33033e-09
1.14432e-09
9.83738e-10
8.45363e-10
7.2634e-10
6.24137e-10
5.36536e-10
4.61615e-10
3.97699e-10
3.4332e-10
2.9715e-10
2.57956e-10
2.24103e-10
1.9348e-10
1.63364e-10
1.22247e-10
1.27781e-10
3.55335e-11
2.10249e-08
1.15935e-08
1.11421e-08
1.09635e-08
1.06513e-08
1.01451e-08
9.52383e-09
8.83588e-09
8.10813e-09
7.36753e-09
6.6371e-09
5.93446e-09
5.27223e-09
4.65829e-09
4.09649e-09
3.58785e-09
3.13134e-09
2.72466e-09
2.3647e-09
2.04787e-09
1.77028e-09
1.52799e-09
1.31717e-09
1.13424e-09
9.75877e-10
8.39077e-10
7.21131e-10
6.19622e-10
5.32422e-10
4.57674e-10
3.9374e-10
3.39173e-10
2.92653e-10
2.52928e-10
2.1814e-10
1.85632e-10
1.51401e-10
1.04659e-10
1.07529e-10
2.49067e-11
1.74161e-08
9.54736e-09
9.28962e-09
9.37883e-09
9.3124e-09
9.04037e-09
8.62775e-09
8.11761e-09
7.5388e-09
6.92095e-09
6.29011e-09
5.66711e-09
5.06761e-09
4.50253e-09
3.97849e-09
3.49875e-09
3.06426e-09
2.67429e-09
2.32696e-09
2.0196e-09
1.74905e-09
1.51196e-09
1.30497e-09
1.12481e-09
9.68448e-10
8.3305e-10
7.16044e-10
6.15123e-10
5.28238e-10
4.53579e-10
3.8954e-10
3.34693e-10
2.87718e-10
2.47314e-10
2.11284e-10
1.76013e-10
1.35772e-10
8.32784e-11
8.19125e-11
1.55784e-11
1.41842e-08
7.87246e-09
7.8119e-09
8.1026e-09
8.22258e-09
8.13162e-09
7.88302e-09
7.51495e-09
7.05699e-09
6.53996e-09
5.99188e-09
5.43577e-09
4.88953e-09
4.36628e-09
3.87474e-09
3.42008e-09
3.00483e-09
2.62953e-09
2.29332e-09
1.99431e-09
1.72998e-09
1.4975e-09
1.29389e-09
1.11619e-09
9.61589e-10
8.27412e-10
7.11215e-10
6.10785e-10
5.24136e-10
4.49497e-10
3.85284e-10
3.30084e-10
2.82571e-10
2.41362e-10
2.03746e-10
1.64555e-10
1.16339e-10
6.05964e-11
5.46153e-11
8.56977e-12
1.12018e-08
6.49102e-09
6.63908e-09
7.08419e-09
7.34566e-09
7.39394e-09
7.27329e-09
7.01753e-09
6.65626e-09
6.22092e-09
5.74057e-09
5.23971e-09
4.73784e-09
4.24967e-09
3.78558e-09
3.35224e-09
2.95342e-09
2.59071e-09
2.26405e-09
1.97223e-09
1.71328e-09
1.48478e-09
1.2841e-09
1.10853e-09
9.5543e-10
8.22294e-10
7.06779e-10
6.06752e-10
5.20273e-10
4.45596e-10
3.81159e-10
3.25564e-10
2.77468e-10
2.35358e-10
1.95782e-10
1.51299e-10
9.42021e-11
4.02586e-11
3.14456e-11
4.06875e-12
8.43195e-09
5.36938e-09
5.72581e-09
6.28724e-09
6.65437e-09
6.80809e-09
6.78537e-09
6.61663e-09
6.33125e-09
5.96066e-09
5.53448e-09
5.07814e-09
4.61226e-09
4.15276e-09
3.71123e-09
3.2955e-09
2.91032e-09
2.55808e-09
2.23939e-09
1.95357e-09
1.69912e-09
1.47396e-09
1.27573e-09
1.10193e-09
9.50088e-10
8.17819e-10
7.02871e-10
6.03164e-10
5.16795e-10
4.42041e-10
3.77358e-10
3.21357e-10
2.72668e-10
2.2961e-10
1.87726e-10
1.36678e-10
7.21434e-11
2.48886e-11
1.58372e-11
1.62372e-12
5.96596e-09
4.50005e-09
5.04535e-09
5.68667e-09
6.1286e-09
6.35919e-09
6.40894e-09
6.30539e-09
6.0775e-09
5.75646e-09
5.37201e-09
4.95015e-09
4.51232e-09
4.07534e-09
3.65166e-09
3.24991e-09
2.87559e-09
2.5317e-09
2.21937e-09
1.93838e-09
1.68754e-09
1.46506e-09
1.26878e-09
1.09639e-09
9.45542e-10
8.13959e-10
6.99454e-10
5.99988e-10
5.13683e-10
4.3883e-10
3.73901e-10
3.17515e-10
2.68261e-10
2.24246e-10
1.79748e-10
1.21309e-10
5.291e-11
1.46403e-11
7.04479e-12
5.09341e-13
4.16713e-09
3.91414e-09
4.59322e-09
5.27408e-09
5.7566e-09
6.03294e-09
6.12765e-09
6.06581e-09
5.87557e-09
5.58755e-09
5.23129e-09
4.83301e-09
4.41456e-09
3.99323e-09
3.58197e-09
3.18993e-09
2.82303e-09
2.48472e-09
2.17648e-09
1.89836e-09
1.64939e-09
1.42792e-09
1.23192e-09
1.05917e-09
9.07383e-10
7.74283e-10
6.57673e-10
5.55466e-10
4.65724e-10
3.86656e-10
3.16629e-10
2.54118e-10
1.97487e-10
1.44387e-10
8.85555e-11
3.2338e-11
4.55789e-12
1.32051e-13
4.06315e-14
1.88369e-13
1.75356e-10
1.6537e-10
2.66745e-10
3.63733e-10
4.15155e-10
4.22062e-10
3.89462e-10
3.27109e-10
2.49805e-10
1.72821e-10
1.076e-10
5.96757e-11
2.90176e-11
1.20575e-11
4.08972e-12
1.03025e-12
1.51423e-13
5.02063e-15
2.36591e-15
3.06113e-14
8.14233e-14
1.27107e-13
1.51679e-13
1.53837e-13
1.39995e-13
1.18065e-13
9.42831e-14
7.23909e-14
5.4038e-14
3.95471e-14
2.85681e-14
2.04955e-14
1.46899e-14
1.05835e-14
7.71346e-15
5.72012e-15
4.45428e-15
3.03668e-15
4.54623e-15
1.04002e-15
2.1797e-16
6.43864e-17
3.51555e-16
3.89276e-16
2.01871e-16
6.89121e-17
1.54983e-17
3.78127e-18
6.78486e-18
1.9893e-17
3.99786e-17
5.99919e-17
7.40149e-17
7.96198e-17
7.74382e-17
6.97187e-17
5.90497e-17
4.76136e-17
3.68977e-17
2.769e-17
2.02393e-17
1.44654e-17
1.01363e-17
6.97886e-18
4.7335e-18
3.17388e-18
2.11259e-18
1.40175e-18
9.30269e-19
6.18876e-19
4.13394e-19
2.77746e-19
1.88121e-19
1.28828e-19
8.95902e-20
6.38327e-20
4.71781e-20
3.26851e-20
5.16695e-20
1.35031e-20
)
;

boundaryField
{
    inlet
    {
        type            calculated;
        value           nonuniform List<scalar> 
20
(
4.8132e-31
1.03052e-30
1.03214e-30
1.0343e-30
1.03514e-30
1.03554e-30
1.03577e-30
1.0359e-30
1.03597e-30
1.03604e-30
1.03607e-30
1.03609e-30
1.03607e-30
1.03601e-30
1.03587e-30
1.03549e-30
1.03475e-30
1.03255e-30
1.031e-30
4.82765e-31
)
;
    }
    outlet
    {
        type            calculated;
        value           nonuniform List<scalar> 
27
(
1.03588e-37
8.51349e-38
5.78723e-38
3.06709e-38
1.09853e-38
1.70627e-39
1.11597e-42
9.67529e-40
8.27306e-39
2.5424e-38
5.04364e-38
7.66282e-38
9.56578e-38
1.0128e-37
9.20258e-38
7.16874e-38
4.58204e-38
1.98868e-37
2.19222e-39
6.7095e-43
5.68357e-43
1.70981e-39
2.18432e-36
5.27302e-38
7.61898e-38
9.80789e-38
1.08262e-37
)
;
    }
    lowerWall
    {
        type            fixedValue;
        value           uniform 0;
    }
    upperWall
    {
        type            fixedValue;
        value           uniform 0;
    }
    defaultFaces
    {
        type            empty;
    }
}


// ************************************************************************* //
