/*--------------------------------*- C++ -*----------------------------------*\
| =========                 |                                                 |
| \\      /  F ield         | OpenFOAM: The Open Source CFD Toolbox           |
|  \\    /   O peration     | Version:  2112                                  |
|   \\  /    A nd           | Website:  www.openfoam.com                      |
|    \\/     M anipulation  |                                                 |
\*---------------------------------------------------------------------------*/
FoamFile
{
    version     2.0;
    format      ascii;
    arch        "LSB;label=32;scalar=64";
    class       volScalarField;
    location    "0.01";
    object      p;
}
// * * * * * * * * * * * * * * * * * * * * * * * * * * * * * * * * * * * * * //

dimensions      [0 2 -2 0 0 0 0];

internalField   nonuniform List<scalar> 
1880
(
0.00535854
0.00415024
0.00492194
0.00472565
0.00458954
0.00454808
0.00453247
0.00451605
0.00450046
0.00448754
0.0044773
0.00446976
0.00446515
0.00446383
0.00446632
0.00447327
0.00448553
0.00450417
0.00453055
0.00456643
0.00461409
0.00467656
0.00475794
0.00486391
0.00500325
0.00518642
0.00543956
0.00576527
0.00625686
0.00688961
0.00520898
0.00409517
0.00488866
0.0047123
0.00458098
0.00454224
0.00452856
0.00451307
0.00449785
0.00448503
0.00447471
0.00446694
0.00446197
0.00446017
0.004462
0.00446811
0.0044793
0.00449655
0.00452114
0.00455464
0.0045991
0.00465711
0.00473204
0.00482815
0.00495061
0.00510553
0.00529595
0.00552297
0.00575497
0.00595122
0.00516591
0.00406806
0.00487189
0.00469892
0.00457088
0.00453446
0.00452228
0.00450767
0.00449286
0.00448009
0.00446954
0.0044613
0.0044556
0.00445279
0.00445333
0.00445778
0.00446684
0.00448137
0.00450242
0.00453132
0.00456964
0.00461927
0.00468245
0.0047617
0.00485924
0.00497728
0.00511298
0.00526604
0.00541772
0.00553097
0.00511896
0.00403674
0.00484795
0.00468147
0.00455792
0.00452432
0.00451385
0.00450019
0.0044858
0.004473
0.00446204
0.00445305
0.00444626
0.00444198
0.00444063
0.00444268
0.00444867
0.00445932
0.00447544
0.00449794
0.00452787
0.00456638
0.00461458
0.00467337
0.00474253
0.00482164
0.00490193
0.00498451
0.00502596
0.00502165
0.00508794
0.00401176
0.00482763
0.00466511
0.00454468
0.00451325
0.00450418
0.0044913
0.00447714
0.00446414
0.00445257
0.00444255
0.00443434
0.0044282
0.00442444
0.00442345
0.00442567
0.00443156
0.00444165
0.0044565
0.00447666
0.00450252
0.00453422
0.00457136
0.00461211
0.00465423
0.00468701
0.00471264
0.00468938
0.00463302
0.00506377
0.0039909
0.00480971
0.00464982
0.00453167
0.00450189
0.00449386
0.00448149
0.00446736
0.00445392
0.00444153
0.00443025
0.0044203
0.00441192
0.00440538
0.00440092
0.00439879
0.00439929
0.00440271
0.00440924
0.00441893
0.00443162
0.00444669
0.00446291
0.00447751
0.0044876
0.00448237
0.00446561
0.00439846
0.00430362
0.00504498
0.00397375
0.00479439
0.00463618
0.00451951
0.00449084
0.00448343
0.00447122
0.00445688
0.00444282
0.00442933
0.00441654
0.00440465
0.00439381
0.00438416
0.00437587
0.00436908
0.00436389
0.00436034
0.00435828
0.00435744
0.00435724
0.00435657
0.0043537
0.00434549
0.00432895
0.00429409
0.00424517
0.00414792
0.00402688
0.00503036
0.00395992
0.00478164
0.00462446
0.00450857
0.00448044
0.00447331
0.00446101
0.00444613
0.00443116
0.00441641
0.00440197
0.00438793
0.00437439
0.00436146
0.0043492
0.00433763
0.00432665
0.00431608
0.00430561
0.00429467
0.00428242
0.00426746
0.00424782
0.00422038
0.00418232
0.00412483
0.00405209
0.00393467
0.00379582
0.00501929
0.00394919
0.0047714
0.0046147
0.00449915
0.00447114
0.00446384
0.00445109
0.00443547
0.00441943
0.00440324
0.00438694
0.00437061
0.0043543
0.00433804
0.00432179
0.00430542
0.00428873
0.00427141
0.00425298
0.0042327
0.00420952
0.00418195
0.00414802
0.00410482
0.00404975
0.00397532
0.00388513
0.00375452
0.00360384
0.00501144
0.00394136
0.00476373
0.0046071
0.00449142
0.00446311
0.00445532
0.00444184
0.00442525
0.00440795
0.00439017
0.00437191
0.00435323
0.00433413
0.00431455
0.00429436
0.00427335
0.00425124
0.0042276
0.00420183
0.0041731
0.00414029
0.0041019
0.00405608
0.0040002
0.00393198
0.0038452
0.0037428
0.00360448
0.00344668
0.00500675
0.00393649
0.00475868
0.00460175
0.00448553
0.00445656
0.00444799
0.00443354
0.00441575
0.00439702
0.00437754
0.00435729
0.00433626
0.0043144
0.00429159
0.00426763
0.00424226
0.00421511
0.00418568
0.0041533
0.00411711
0.00407599
0.00402853
0.00397302
0.00390714
0.00382895
0.00373342
0.00362282
0.00348097
0.00332018
0.00500533
0.00393466
0.00475635
0.00459877
0.00448166
0.00445169
0.00444202
0.00442636
0.0044072
0.00438692
0.00436569
0.00434344
0.0043201
0.00429558
0.00426969
0.00424222
0.00421282
0.00418109
0.00414648
0.00410828
0.00406564
0.0040175
0.00396255
0.00389925
0.00382564
0.00374008
0.00363857
0.00352282
0.00338027
0.00321974
0.00500742
0.00393609
0.00475693
0.00459832
0.00447992
0.0044486
0.00443754
0.00442045
0.00439977
0.00437787
0.00435488
0.00433065
0.00430509
0.00427805
0.00424933
0.00421864
0.00418562
0.0041498
0.00411064
0.00406742
0.00401932
0.00396534
0.0039043
0.00383487
0.00375539
0.00366449
0.00355908
0.00344043
0.003299
0.00314092
0.00501351
0.00394117
0.00476068
0.00460054
0.00448038
0.00444733
0.00443461
0.00441589
0.00439361
0.00437004
0.00434528
0.00431915
0.00429151
0.00426217
0.00423089
0.00419733
0.0041611
0.00412172
0.00407864
0.00403117
0.00397853
0.0039198
0.00385391
0.00377972
0.00369586
0.0036012
0.00349343
0.00337343
0.00323418
0.00307982
0.00502469
0.0039504
0.00476782
0.0046055
0.00448302
0.00444785
0.00443321
0.0044127
0.00438872
0.0043635
0.00433704
0.00430915
0.00427962
0.00424822
0.00421466
0.0041786
0.00413962
0.00409722
0.00405086
0.00399987
0.00394353
0.00388098
0.00381131
0.00373351
0.00364647
0.00354927
0.0034402
0.00331985
0.00318326
0.0030332
0.0050424
0.00396445
0.00477871
0.0046133
0.00448773
0.00445
0.0044332
0.00441079
0.0043851
0.00435827
0.00433025
0.00430076
0.00426957
0.00423639
0.0042009
0.00416273
0.00412144
0.00407656
0.00402753
0.00397372
0.00391444
0.00384893
0.00377636
0.00369589
0.00360659
0.00350774
0.00339809
0.00327799
0.00314414
0.00299839
0.00506735
0.00398338
0.0047927
0.00462316
0.0044939
0.00445335
0.00443428
0.00440997
0.00438263
0.00435434
0.00432493
0.00429408
0.00426148
0.00422682
0.00418976
0.00414989
0.00410678
0.00405994
0.00400882
0.00395282
0.0038913
0.00382356
0.00374887
0.00366648
0.00357566
0.00347579
0.00336602
0.00324648
0.00311514
0.00297329
0.00511144
0.00401168
0.00481321
0.00463634
0.00450216
0.00445784
0.00443618
0.00440999
0.00438116
0.0043516
0.00432106
0.00428912
0.00425542
0.00421964
0.00418137
0.00414023
0.00409576
0.00404747
0.00399482
0.00393724
0.00387411
0.0038048
0.00372863
0.00364497
0.00355318
0.00345276
0.00334312
0.00322426
0.00309504
0.00295642
0.00515072
0.00403464
0.00482608
0.00464621
0.00450847
0.00446146
0.00443796
0.00441035
0.00438042
0.00434994
0.00431858
0.00428588
0.00425144
0.00421489
0.00417584
0.00413385
0.00408849
0.00403925
0.00398561
0.00392701
0.00386287
0.00379256
0.00371549
0.00363106
0.00353874
0.00343808
0.00332869
0.00321056
0.00308308
0.00294714
0.00529908
0.00408857
0.00485805
0.004658
0.00451537
0.00446583
0.00443993
0.00441096
0.00438024
0.00434921
0.00431741
0.00428432
0.00424951
0.00421258
0.00417313
0.00413074
0.00408494
0.00403525
0.00398113
0.00392204
0.00385741
0.00378665
0.00370916
0.00362441
0.00353188
0.00343117
0.00332198
0.00320439
0.0030783
0.00294509
0.00739831
0.00591608
0.00520081
0.00442133
0.00354205
0.00263934
0.00126765
-0.000901662
-0.00334338
-0.0143391
0.00603634
0.00495249
0.00436658
0.00362752
0.00276523
0.00181894
0.000249623
-0.000957879
-0.00474453
-0.00365302
0.00564055
0.00494005
0.00441061
0.00374478
0.00295144
0.00202004
0.000829012
-0.000781374
-0.00227861
-0.00416453
0.00496939
0.00428
0.00372377
0.00304692
0.00227214
0.00140615
0.00030084
-0.000766227
-0.00232032
-0.00248777
0.00456968
0.00407487
0.00361233
0.00307057
0.00242131
0.00166214
0.000752551
-0.000195683
-0.00106873
-0.00135608
0.00419851
0.00371942
0.00324129
0.00269956
0.00207402
0.00138023
0.000608964
-9.28485e-05
-0.000700548
-0.000801774
0.00390292
0.00349687
0.00307153
0.00261022
0.00207845
0.0014739
0.000846218
0.000295252
-0.000139778
-0.000232599
0.00365606
0.00329747
0.00289829
0.00247428
0.00199008
0.00146682
0.000962019
0.000537904
0.000233109
0.000147019
0.00344596
0.00313352
0.00276805
0.00238916
0.00197184
0.00153408
0.00112132
0.00078187
0.000537656
0.000454359
0.00327733
0.00299787
0.00266429
0.00233027
0.00197095
0.00160032
0.00125821
0.000979497
0.00077295
0.000690316
0.00314594
0.0028921
0.00259222
0.00229683
0.00198583
0.00167012
0.0013814
0.00114353
0.000960266
0.000875371
0.00304502
0.00281046
0.00254269
0.00228056
0.00200893
0.00173642
0.00148741
0.00127737
0.00111
0.00102078
0.00296885
0.00275072
0.00251042
0.00227583
0.00203551
0.0017965
0.00157677
0.00138621
0.00122988
0.0011354
0.00291214
0.00270914
0.0024912
0.00227855
0.00206269
0.00184922
0.00165097
0.00147447
0.00132579
0.00122573
0.00287075
0.00268149
0.00248142
0.00228577
0.00208871
0.00189448
0.00171198
0.00154589
0.00140238
0.00129674
0.0028413
0.00266404
0.00247815
0.0022954
0.00211248
0.00193257
0.00176164
0.00160335
0.00146328
0.00135233
0.00282113
0.00265382
0.00247906
0.00230589
0.00213332
0.00196386
0.00180134
0.00164888
0.00151115
0.00139548
0.00280823
0.00264875
0.00248251
0.00231624
0.00215083
0.00198859
0.00183199
0.00168374
0.00154765
0.00142807
0.00280157
0.0026474
0.00248705
0.00232541
0.00216486
0.00200782
0.00185537
0.00170977
0.00157448
0.00145124
0.00280415
0.00265491
0.00249829
0.00233907
0.00218057
0.00202535
0.00187522
0.0017315
0.00159675
0.00147081
-0.00326397
-0.00181134
-0.00113577
-0.000414576
0.000103727
0.000426949
0.000612949
0.000711649
0.000757567
0.000772432
0.000769252
0.000755628
0.000735962
0.000712802
0.000687632
0.000661319
0.00063438
0.000607117
0.0005797
0.000552227
0.000524761
0.000497338
0.000469985
0.000442712
0.00041552
0.000388398
0.000361337
0.000334331
0.000307382
0.00028049
0.000253654
0.000226864
0.000200111
0.000173386
0.00014668
0.000119994
9.33177e-05
6.66435e-05
3.99989e-05
1.33461e-05
-0.00384337
-0.00199544
-0.00132265
-0.000480291
8.34536e-05
0.000419468
0.000608348
0.000707321
0.000753199
0.000768241
0.000765448
0.000752306
0.000733127
0.000710414
0.00068564
0.000659666
0.000633007
0.000605975
0.000578748
0.000551428
0.000524085
0.00049677
0.00046951
0.000442315
0.000415183
0.000388111
0.00036109
0.00033412
0.000307203
0.00028034
0.000253529
0.00022676
0.000200023
0.00017331
0.000146615
0.000119939
9.32728e-05
6.66097e-05
3.99772e-05
1.33386e-05
-0.00507777
-0.00238663
-0.00168342
-0.000578665
6.27909e-05
0.00041594
0.00060669
0.00070416
0.000748709
0.000763239
0.000760554
0.000747854
0.000729241
0.000707102
0.000682853
0.000657338
0.000631067
0.000604357
0.000577396
0.000550296
0.000523135
0.000495971
0.000468838
0.000441747
0.000414702
0.0003877
0.00036074
0.000333823
0.000306951
0.000280127
0.000253348
0.000226607
0.000199893
0.000173201
0.000146523
0.000119864
9.32132e-05
6.6565e-05
3.99476e-05
1.33277e-05
-0.00576175
-0.00311536
-0.00219037
-0.000650903
6.54695e-05
0.000427594
0.000614029
0.000705925
0.000746799
0.000759552
0.000756311
0.000743707
0.000725485
0.000703831
0.000680062
0.000654985
0.000629094
0.000602703
0.000576008
0.000549131
0.000522157
0.000495147
0.00046814
0.000441155
0.000414198
0.00038727
0.000360373
0.00033351
0.000306685
0.000279902
0.000253156
0.000226442
0.000199753
0.000173083
0.000146426
0.000119786
9.31517e-05
6.65198e-05
3.99187e-05
1.33176e-05
-0.0123425
-0.00472063
-0.00282057
-0.000634368
0.000113687
0.000460489
0.000630659
0.000711487
0.000746336
0.00075636
0.00075219
0.000739539
0.000721657
0.000700474
0.000677188
0.000652556
0.000627055
0.000600992
0.00057457
0.000547923
0.000521139
0.000494287
0.000467411
0.000440534
0.000413668
0.000386817
0.000359986
0.000333179
0.000306404
0.000279661
0.00025295
0.000226267
0.000199604
0.000172958
0.000146323
0.000119702
9.30865e-05
6.64726e-05
3.9889e-05
1.33074e-05
-0.0103697
-0.00595145
-0.00301402
-0.000471853
0.000222492
0.000516365
0.000654469
0.000718825
0.00074603
0.000752945
0.000747825
0.000735181
0.000717693
0.000697023
0.000674245
0.000650071
0.000624969
0.000599243
0.000573102
0.000546685
0.000520095
0.000493403
0.000466659
0.000439892
0.000413118
0.000386346
0.000359582
0.000332834
0.000306108
0.000279408
0.000252734
0.000226082
0.000199447
0.000172827
0.000146213
0.000119613
9.30187e-05
6.64239e-05
3.98583e-05
1.32969e-05
-0.0292222
-0.00879304
-0.00436634
-0.000558034
0.000315229
0.000567868
0.000673152
0.000722465
0.000743449
0.000748216
0.000742724
0.000730418
0.000713506
0.000693447
0.000671232
0.000647545
0.000622855
0.000597474
0.000571615
0.000545431
0.000519035
0.000492503
0.000465892
0.000439235
0.000412554
0.000385862
0.000359166
0.000332477
0.000305801
0.000279145
0.000252508
0.000225889
0.000199283
0.000172688
0.000146099
0.000119522
9.29486e-05
6.63733e-05
3.98263e-05
1.32857e-05
-0.0193897
-0.00677942
-0.000267744
0.000945196
0.000834946
0.000713912
0.000705358
0.000724483
0.000738099
0.000741666
0.000736609
0.000725119
0.000709036
0.000689718
0.000668132
0.000644968
0.000620708
0.000595677
0.000570104
0.000544155
0.000517952
0.00049158
0.000465102
0.000438557
0.000411971
0.000385359
0.000358732
0.000332103
0.000305479
0.000278868
0.00025227
0.000225685
0.000199109
0.000172542
0.000145979
0.000119426
9.28749e-05
6.63198e-05
3.97922e-05
1.32739e-05
-0.0049571
-0.00360428
-0.00202724
-0.000785225
6.40558e-05
0.000464632
0.000624109
0.000691512
0.000721234
0.000731023
0.000728923
0.000719186
0.000704307
0.000685885
0.000664995
0.000642382
0.000618559
0.00059388
0.000568591
0.000542873
0.000516859
0.000490645
0.000464299
0.000437865
0.000411373
0.000384841
0.000358284
0.000331715
0.000305144
0.000278579
0.000252021
0.000225471
0.000198927
0.00017239
0.000145853
0.000119325
9.27972e-05
6.62633e-05
3.97562e-05
1.32614e-05
-0.00579214
-0.00283989
-0.000842503
-4.75919e-08
0.000307488
0.000497119
0.000612206
0.00067535
0.000707776
0.000720796
0.000721192
0.000713233
0.000699624
0.000682134
0.00066195
0.000639879
0.000616481
0.000592137
0.000567119
0.00054162
0.000515787
0.000489723
0.000463503
0.000437176
0.000410775
0.000384322
0.000357833
0.000331324
0.000304805
0.000278285
0.000251767
0.000225253
0.000198742
0.000172234
0.000145725
0.000119221
9.27175e-05
6.62051e-05
3.9719e-05
1.32486e-05
-0.00194037
-0.00150191
-0.00082865
-0.00021785
0.000201118
0.000445535
0.000582117
0.000656362
0.000694725
0.000711322
0.000714076
0.000707743
0.000695294
0.000678657
0.000659115
0.000637539
0.000614525
0.000590486
0.000565714
0.000540416
0.000514749
0.000488825
0.000462724
0.000436498
0.000410184
0.000383806
0.000357383
0.000330932
0.000304464
0.000277988
0.00025151
0.000225032
0.000198554
0.000172076
0.000145594
0.000119116
9.26361e-05
6.61457e-05
3.96813e-05
1.32356e-05
-0.00127094
-0.000854961
-0.000384815
-7.19394e-06
0.000270417
0.000458792
0.000577709
0.000648144
0.000686738
0.000704527
0.000708521
0.000703235
0.00069162
0.000675635
0.000656605
0.000635432
0.000612738
0.000588958
0.000564396
0.000539275
0.000513756
0.000487959
0.000461967
0.000435836
0.000409603
0.000383296
0.000356937
0.000330541
0.000304123
0.000277691
0.000251252
0.00022481
0.000198364
0.000171916
0.000145462
0.00011901
9.25537e-05
6.60857e-05
3.96431e-05
1.32225e-05
-0.000618502
-0.000379436
-0.000131285
0.000117198
0.000328932
0.000482571
0.000584548
0.000647903
0.000683905
0.000700988
0.000705036
0.000700072
0.000688843
0.000673225
0.000654518
0.000633622
0.000611163
0.00058758
0.000563187
0.00053821
0.000512819
0.000487133
0.000461238
0.000435192
0.000409035
0.000382795
0.000356496
0.000330154
0.000303783
0.000277394
0.000250994
0.000224587
0.000198174
0.000171756
0.000145329
0.000118902
9.24706e-05
6.60253e-05
3.96048e-05
1.32092e-05
-9.88643e-05
1.70872e-05
0.000127067
0.000266468
0.000409072
0.000523088
0.000603505
0.000655831
0.000686455
0.000700985
0.000703883
0.000698463
0.000687113
0.000671531
0.000652927
0.000632159
0.000609831
0.000586375
0.0005621
0.000537234
0.000511945
0.000486353
0.000460542
0.000434572
0.000408483
0.000382306
0.000356062
0.000329771
0.000303446
0.000277099
0.000250738
0.000224366
0.000197985
0.000171596
0.000145196
0.000118795
9.23875e-05
6.59647e-05
3.95665e-05
1.3196e-05
0.000239861
0.000297606
0.000334613
0.000403487
0.00049246
0.000571556
0.000630557
0.000670261
0.000693749
0.000704321
0.000705044
0.000698448
0.000686482
0.000670598
0.000651867
0.000631066
0.00060876
0.000585354
0.000561145
0.000536353
0.00051114
0.000485622
0.000459882
0.000433977
0.00040795
0.000381829
0.000355638
0.000329395
0.000303114
0.000276808
0.000250484
0.000224147
0.000197797
0.000171436
0.000145064
0.000118688
9.23046e-05
6.59044e-05
3.95283e-05
1.31827e-05
0.000504899
0.000518849
0.000508885
0.000528704
0.000575315
0.000623985
0.000662757
0.000689473
0.000704866
0.000710527
0.000708293
0.000699926
0.000686908
0.000670411
0.000651331
0.000630345
0.000607951
0.000584519
0.000560323
0.000535568
0.000510404
0.000484941
0.000459257
0.000433409
0.000407436
0.000381366
0.000355224
0.000329026
0.000302788
0.000276521
0.000250234
0.00022393
0.000197611
0.000171278
0.000144932
0.000118581
9.22224e-05
6.58445e-05
3.94903e-05
1.31696e-05
0.000705729
0.000690517
0.000651865
0.000638664
0.000653332
0.000676752
0.00069741
0.000711667
0.000718731
0.000718966
0.000713261
0.000702685
0.000688271
0.000670899
0.000651279
0.000629968
0.000607388
0.000583861
0.000559629
0.000534875
0.000509735
0.000484308
0.000458668
0.000432867
0.000406941
0.000380918
0.00035482
0.000328666
0.000302469
0.000276241
0.000249989
0.000223718
0.000197428
0.000171123
0.000144803
0.000118477
9.21412e-05
6.57852e-05
3.94527e-05
1.31566e-05
0.000862582
0.000826303
0.000769234
0.000733472
0.00072437
0.000727391
0.000732396
0.00073524
0.000734248
0.000728934
0.000719495
0.000706439
0.000690388
0.000671947
0.000651637
0.000629889
0.000607041
0.00058336
0.000559049
0.000534265
0.000509126
0.00048372
0.000458113
0.000432349
0.000406465
0.000380484
0.000354429
0.000328315
0.000302158
0.000275967
0.00024975
0.00022351
0.000197249
0.00017097
0.000144676
0.000118374
9.20614e-05
6.5727e-05
3.94157e-05
1.31439e-05
0.000985741
0.00093408
0.00086508
0.000813963
0.000787361
0.000774247
0.000766106
0.000758859
0.000750403
0.000739722
0.000726513
0.000710861
0.000693042
0.000673409
0.000652307
0.000630042
0.000606866
0.000582985
0.000558563
0.000533725
0.00050857
0.000483172
0.000457587
0.000431855
0.000406007
0.000380065
0.000354049
0.000327975
0.000301856
0.000275702
0.000249517
0.000223307
0.000197074
0.000170822
0.000144552
0.000118273
9.19834e-05
6.567e-05
3.93795e-05
1.31315e-05
0.0010827
0.00101959
0.000942853
0.000881382
0.000841993
0.000816311
0.000797377
0.000781459
0.000766327
0.000750668
0.000733838
0.000715612
0.000695994
0.00067512
0.000653176
0.000630349
0.000606809
0.000582701
0.000558145
0.000533237
0.000508054
0.000482655
0.000457087
0.000431382
0.000405566
0.00037966
0.000353682
0.000327646
0.000301564
0.000275444
0.000249292
0.000223111
0.000196905
0.000170678
0.000144432
0.000118176
9.19076e-05
6.56147e-05
3.93445e-05
1.31195e-05
0.00115883
0.00108702
0.00100535
0.000937034
0.000888382
0.00085304
0.000825415
0.000802231
0.000781304
0.000761187
0.000741023
0.000720362
0.000699004
0.000676909
0.000654122
0.000630725
0.000606811
0.000582466
0.000557768
0.000532782
0.000507566
0.000482162
0.000456606
0.000430925
0.00040514
0.000379269
0.000353327
0.000327329
0.000301282
0.000275196
0.000249074
0.000222921
0.000196741
0.000170539
0.000144316
0.000118082
9.18345e-05
6.55614e-05
3.93108e-05
1.31079e-05
0.00121819
0.00113954
0.00105485
0.000982163
0.000926871
0.000884196
0.000849704
0.000820576
0.000794763
0.000770788
0.00074767
0.000724804
0.000701843
0.000678606
0.000655023
0.000631085
0.000606812
0.000582237
0.000557401
0.000532341
0.000507092
0.000481683
0.00045614
0.000430482
0.000404727
0.000378891
0.000352985
0.000327023
0.000301011
0.000274957
0.000248865
0.000222739
0.000196584
0.000170405
0.000144205
0.000117991
9.17643e-05
6.55104e-05
3.92788e-05
1.3097e-05
0.00126399
0.00117971
0.00109324
0.00101789
0.00095789
0.000909733
0.000869929
0.000836067
0.000806264
0.000779067
0.000753437
0.000728668
0.000704303
0.000680057
0.000655766
0.000631344
0.00060675
0.000581973
0.000557015
0.000531892
0.000506618
0.00048121
0.000455683
0.000430051
0.000404327
0.000378526
0.000352656
0.000326729
0.000300751
0.000274728
0.000248664
0.000222565
0.000196434
0.000170278
0.000144099
0.000117905
9.16975e-05
6.54619e-05
3.92485e-05
1.30866e-05
0.00129877
0.00120958
0.00112207
0.00104515
0.000981879
0.000929707
0.000885908
0.000848405
0.000815471
0.000785707
0.000758046
0.000731723
0.000706202
0.000681122
0.000656247
0.000631427
0.000606573
0.000581633
0.000556585
0.000531418
0.000506133
0.000480734
0.00045523
0.000429628
0.000403939
0.000378173
0.00035234
0.000326448
0.000300503
0.00027451
0.000248474
0.0002224
0.000196292
0.000170158
0.000143998
0.000117824
9.16342e-05
6.54161e-05
3.922e-05
1.30768e-05
0.00132442
0.00123084
0.00114256
0.00106473
0.000999223
0.000944213
0.000897543
0.000857384
0.000822139
0.000790458
0.000761273
0.000733779
0.000707388
0.000681684
0.000656376
0.000631267
0.000606231
0.000581186
0.000556085
0.000530903
0.000505626
0.00048025
0.000454777
0.000429211
0.000403561
0.000377834
0.000352038
0.000326181
0.000300268
0.000274305
0.000248295
0.000222245
0.00019616
0.000170045
0.000143905
0.000117748
9.15745e-05
6.53725e-05
3.91929e-05
1.30673e-05
0.00134162
0.00124437
0.00115546
0.00107713
0.00101018
0.000953304
0.000904743
0.000862833
0.00082606
0.000793117
0.000762934
0.000734681
0.000707736
0.000681643
0.000656074
0.000630803
0.000605676
0.000580591
0.000555486
0.000530323
0.000505078
0.000479743
0.000454314
0.000428793
0.000403187
0.000377502
0.000351745
0.000325924
0.000300044
0.000274109
0.000248126
0.000222099
0.000196035
0.00016994
0.000143817
0.000117676
9.15177e-05
6.53307e-05
3.9166e-05
1.30567e-05
0.0013544
0.00125186
0.0011618
0.00108298
0.00101519
0.000957335
0.000907817
0.000865034
0.000827512
0.000793959
0.000763306
0.000734708
0.000707522
0.00068127
0.000655606
0.000630287
0.000605146
0.00058007
0.00055499
0.000529859
0.000504652
0.000479357
0.000453968
0.000428486
0.000402915
0.000377264
0.000351537
0.000325742
0.000299885
0.000273971
0.000248006
0.000221997
0.000195948
0.000169867
0.000143756
0.000117627
9.14784e-05
6.53015e-05
3.91466e-05
1.30484e-05
)
;

boundaryField
{
    inlet
    {
        type            zeroGradient;
    }
    outlet
    {
        type            fixedValue;
        value           uniform 0;
    }
    lowerWall
    {
        type            zeroGradient;
    }
    upperWall
    {
        type            zeroGradient;
    }
    defaultFaces
    {
        type            empty;
    }
}


// ************************************************************************* //
