/*--------------------------------*- C++ -*----------------------------------*\
| =========                 |                                                 |
| \\      /  F ield         | OpenFOAM: The Open Source CFD Toolbox           |
|  \\    /   O peration     | Version:  2112                                  |
|   \\  /    A nd           | Website:  www.openfoam.com                      |
|    \\/     M anipulation  |                                                 |
\*---------------------------------------------------------------------------*/
FoamFile
{
    version     2.0;
    format      ascii;
    arch        "LSB;label=32;scalar=64";
    class       surfaceScalarField;
    location    "0.01";
    object      phi;
}
// * * * * * * * * * * * * * * * * * * * * * * * * * * * * * * * * * * * * * //

dimensions      [0 3 -1 0 0 0 0];

oriented        oriented;

internalField   nonuniform List<scalar> 
3653
(
9.93336e-07
6.66379e-09
9.88017e-07
5.31887e-09
9.84952e-07
3.06524e-09
9.83071e-07
1.88064e-09
9.81744e-07
1.32738e-09
9.80691e-07
1.05355e-09
9.7976e-07
9.30811e-10
9.78855e-07
9.04662e-10
9.77914e-07
9.41472e-10
9.76889e-07
1.0242e-09
9.75741e-07
1.14864e-09
9.74429e-07
1.31146e-09
9.72911e-07
1.51865e-09
9.71135e-07
1.7758e-09
9.69045e-07
2.08999e-09
9.66568e-07
2.47699e-09
9.63617e-07
2.95134e-09
9.60081e-07
3.53582e-09
9.55817e-07
4.26357e-09
9.50641e-07
5.17618e-09
9.44305e-07
6.33575e-09
9.36471e-07
7.8344e-09
9.26657e-07
9.81386e-09
9.14155e-07
1.25021e-08
8.97831e-07
1.63239e-08
8.75936e-07
2.1895e-08
8.44768e-07
3.11683e-08
8.00252e-07
4.45156e-08
7.23353e-07
7.6899e-08
1.06836e-07
6.16517e-07
1.00227e-06
4.39828e-09
1.003e-06
4.58257e-09
1.00251e-06
3.56022e-09
1.00172e-06
2.66752e-09
1.00091e-06
2.13646e-09
1.00011e-06
1.85652e-09
9.99295e-07
1.74378e-09
9.9845e-07
1.74934e-09
9.97544e-07
1.84794e-09
9.96545e-07
2.02288e-09
9.95419e-07
2.27426e-09
9.9413e-07
2.60125e-09
9.92637e-07
3.01155e-09
9.90892e-07
3.52096e-09
9.88839e-07
4.14306e-09
9.86411e-07
4.90471e-09
9.83524e-07
5.83783e-09
9.80074e-07
6.986e-09
9.75929e-07
8.40884e-09
9.7092e-07
1.01851e-08
9.64826e-07
1.24294e-08
9.57354e-07
1.53069e-08
9.48109e-07
1.90592e-08
9.36558e-07
2.40523e-08
9.22007e-07
3.08748e-08
9.03514e-07
4.03885e-08
8.80357e-07
5.43251e-08
8.51215e-07
7.36575e-08
8.21794e-07
1.0632e-07
1.39899e-07
7.88731e-07
1.00141e-06
2.99273e-09
1.0019e-06
4.08801e-09
1.00178e-06
3.68294e-09
1.00132e-06
3.12487e-09
1.00074e-06
2.72065e-09
1.00009e-06
2.49992e-09
9.99399e-07
2.4377e-09
9.98648e-07
2.5001e-09
9.97822e-07
2.67377e-09
9.96898e-07
2.94724e-09
9.9585e-07
3.32148e-09
9.94647e-07
3.80496e-09
9.93251e-07
4.40757e-09
9.91622e-07
5.14946e-09
9.89711e-07
6.05467e-09
9.87456e-07
7.15923e-09
9.84786e-07
8.50737e-09
9.81614e-07
1.01589e-08
9.77829e-07
1.21932e-08
9.73296e-07
1.47183e-08
9.67843e-07
1.7882e-08
9.61262e-07
2.18885e-08
9.53292e-07
2.70288e-08
9.43624e-07
3.37209e-08
9.31922e-07
4.25759e-08
9.17851e-07
5.44595e-08
9.01407e-07
7.07699e-08
8.82182e-07
9.2882e-08
8.6327e-07
1.25232e-07
1.63939e-07
8.3923e-07
1.00072e-06
2.27291e-09
1.00111e-06
3.69287e-09
1.00113e-06
3.66474e-09
1.0009e-06
3.35711e-09
1.00051e-06
3.10987e-09
1.00002e-06
2.98809e-09
9.99458e-07
3.00366e-09
9.98816e-07
3.14121e-09
9.98095e-07
3.39546e-09
9.97273e-07
3.76872e-09
9.96333e-07
4.2622e-09
9.95249e-07
4.88805e-09
9.93993e-07
5.66387e-09
9.9253e-07
6.6128e-09
9.90817e-07
7.76765e-09
9.88806e-07
9.17001e-09
9.86442e-07
1.08713e-08
9.83655e-07
1.29463e-08
9.80362e-07
1.5486e-08
9.7647e-07
1.86104e-08
9.71868e-07
2.24836e-08
9.66433e-07
2.7324e-08
9.60034e-07
3.34273e-08
9.52558e-07
4.11971e-08
9.43951e-07
5.1183e-08
9.34296e-07
6.41146e-08
9.24082e-07
8.09836e-08
9.14159e-07
1.02805e-07
9.07991e-07
1.314e-07
1.64619e-07
9.07311e-07
1.00042e-06
1.85e-09
1.00071e-06
3.40702e-09
1.00077e-06
3.60702e-09
1.00065e-06
3.47501e-09
1.00039e-06
3.36481e-09
1.00003e-06
3.34704e-09
9.99594e-07
3.44417e-09
9.99072e-07
3.66379e-09
9.98465e-07
4.00227e-09
9.97766e-07
4.46777e-09
9.96959e-07
5.06861e-09
9.96027e-07
5.82024e-09
9.94944e-07
6.747e-09
9.93684e-07
7.87258e-09
9.9222e-07
9.23181e-09
9.90514e-07
1.08762e-08
9.88521e-07
1.28638e-08
9.86198e-07
1.52695e-08
9.83495e-07
1.81894e-08
9.80356e-07
2.17493e-08
9.76727e-07
2.61125e-08
9.72563e-07
3.14877e-08
9.67846e-07
3.81443e-08
9.62611e-07
4.64327e-08
9.56997e-07
5.67969e-08
9.51332e-07
6.97795e-08
9.46317e-07
8.59985e-08
9.42953e-07
1.06169e-07
9.43596e-07
1.30758e-07
1.59773e-07
9.48442e-07
1.00027e-06
1.57829e-09
1.00049e-06
3.18808e-09
1.00057e-06
3.5232e-09
1.00053e-06
3.51735e-09
1.00038e-06
3.51347e-09
1.00014e-06
3.59237e-09
9.99811e-07
3.77133e-09
9.99408e-07
4.06654e-09
9.9893e-07
4.48086e-09
9.9837e-07
5.0279e-09
9.97713e-07
5.72479e-09
9.9695e-07
6.58399e-09
9.96069e-07
7.62755e-09
9.9505e-07
8.89127e-09
9.93868e-07
1.04141e-08
9.92502e-07
1.22421e-08
9.9093e-07
1.44364e-08
9.89125e-07
1.70736e-08
9.87066e-07
2.02492e-08
9.84732e-07
2.40834e-08
9.82118e-07
2.87256e-08
9.79245e-07
3.43609e-08
9.76172e-07
4.12179e-08
9.73029e-07
4.95753e-08
9.70065e-07
5.97611e-08
9.67696e-07
7.21485e-08
9.66613e-07
8.70809e-08
9.67758e-07
1.05024e-07
9.72764e-07
1.25752e-07
1.49818e-07
9.82719e-07
1.0002e-06
1.37638e-09
1.00039e-06
2.99703e-09
1.0005e-06
3.41341e-09
1.00052e-06
3.49709e-09
1.00046e-06
3.57732e-09
1.00032e-06
3.73455e-09
1.00011e-06
3.9833e-09
9.99828e-07
4.34362e-09
9.99479e-07
4.8294e-09
9.9906e-07
5.44758e-09
9.9857e-07
6.21402e-09
9.98e-07
7.15403e-09
9.97337e-07
8.29108e-09
9.96572e-07
9.65637e-09
9.95696e-07
1.12897e-08
9.947e-07
1.32379e-08
9.93573e-07
1.55636e-08
9.92308e-07
1.83384e-08
9.90907e-07
2.16501e-08
9.89383e-07
2.56078e-08
9.87767e-07
3.03411e-08
9.86124e-07
3.60045e-08
9.84562e-07
4.27801e-08
9.83262e-07
5.0875e-08
9.82511e-07
6.0512e-08
9.82734e-07
7.19257e-08
9.84558e-07
8.52565e-08
9.88785e-07
1.00797e-07
9.96612e-07
1.17925e-07
1.3764e-07
1.00879e-06
1.00017e-06
1.20273e-09
1.00037e-06
2.80183e-09
1.00051e-06
3.27199e-09
1.00059e-06
3.4142e-09
1.00061e-06
3.55646e-09
1.00057e-06
3.77516e-09
1.00047e-06
4.08837e-09
1.00031e-06
4.50442e-09
1.0001e-06
5.03982e-09
9.99833e-07
5.7115e-09
9.99512e-07
6.53473e-09
9.99136e-07
7.53098e-09
9.98701e-07
8.72526e-09
9.98207e-07
1.01507e-08
9.9765e-07
1.18467e-08
9.9703e-07
1.38584e-08
9.96351e-07
1.62421e-08
9.95626e-07
1.9064e-08
9.94872e-07
2.24032e-08
9.94126e-07
2.63541e-08
9.93445e-07
3.10226e-08
9.92918e-07
3.6531e-08
9.92682e-07
4.30165e-08
9.92934e-07
5.06226e-08
9.93961e-07
5.94855e-08
9.96152e-07
6.97348e-08
1.00003e-06
8.13752e-08
1.00625e-06
9.45848e-08
1.01569e-06
1.08477e-07
1.24239e-07
1.0291e-06
1.00017e-06
1.03551e-09
1.00039e-06
2.58125e-09
1.00058e-06
3.07606e-09
1.00073e-06
3.26349e-09
1.00083e-06
3.45925e-09
1.00088e-06
3.72589e-09
1.00089e-06
4.08284e-09
1.00085e-06
4.54275e-09
1.00077e-06
5.11918e-09
1.00065e-06
5.82641e-09
1.00051e-06
6.68066e-09
1.00033e-06
7.70563e-09
1.00013e-06
8.92774e-09
9.99905e-07
1.03769e-08
9.99663e-07
1.2088e-08
9.99416e-07
1.41054e-08
9.99178e-07
1.64803e-08
9.98971e-07
1.92709e-08
9.98829e-07
2.25451e-08
9.98803e-07
2.638e-08
9.98966e-07
3.086e-08
9.99419e-07
3.60775e-08
1.00031e-06
4.21289e-08
1.00182e-06
4.91054e-08
1.00423e-06
5.70779e-08
1.00787e-06
6.6099e-08
1.01315e-06
7.60927e-08
1.02059e-06
8.71492e-08
1.03068e-06
9.83831e-08
1.10976e-07
1.04394e-06
1.00018e-06
8.57005e-10
1.00044e-06
2.31616e-09
1.0007e-06
2.82297e-09
1.00092e-06
3.04415e-09
1.0011e-06
3.27772e-09
1.00124e-06
3.58348e-09
1.00135e-06
3.97634e-09
1.00142e-06
4.46617e-09
1.00148e-06
5.0656e-09
1.00151e-06
5.79094e-09
1.00154e-06
6.65723e-09
1.00156e-06
7.6861e-09
1.00158e-06
8.90385e-09
1.00162e-06
1.0338e-08
1.00168e-06
1.20216e-08
1.00179e-06
1.39951e-08
1.00197e-06
1.63026e-08
1.00225e-06
1.89939e-08
1.00267e-06
2.21257e-08
1.00329e-06
2.57585e-08
1.00419e-06
2.99571e-08
1.00548e-06
3.47881e-08
1.0073e-06
4.03135e-08
1.00982e-06
4.65844e-08
1.01327e-06
5.36257e-08
1.01793e-06
6.14387e-08
1.02412e-06
6.99055e-08
1.03221e-06
7.90608e-08
1.04248e-06
8.81105e-08
9.80446e-08
1.05541e-06
1.0002e-06
6.56807e-10
1.00052e-06
1.99485e-09
1.00084e-06
2.49993e-09
1.00114e-06
2.7485e-09
1.0014e-06
3.01579e-09
1.00163e-06
3.35281e-09
1.00184e-06
3.77171e-09
1.00202e-06
4.28012e-09
1.0022e-06
4.88813e-09
1.00238e-06
5.61327e-09
1.00257e-06
6.47013e-09
1.00277e-06
7.4782e-09
1.00301e-06
8.66271e-09
1.0033e-06
1.00482e-08
1.00366e-06
1.16659e-08
1.0041e-06
1.3551e-08
1.00467e-06
1.57401e-08
1.00538e-06
1.82758e-08
1.00631e-06
2.12033e-08
1.0075e-06
2.45689e-08
1.00903e-06
2.84208e-08
1.01102e-06
3.28038e-08
1.01358e-06
3.77526e-08
1.01687e-06
4.32888e-08
1.02109e-06
4.9407e-08
1.02645e-06
5.60776e-08
1.03319e-06
6.31664e-08
1.04158e-06
7.06776e-08
1.05176e-06
7.7923e-08
8.5684e-08
1.06412e-06
1.00023e-06
4.2345e-10
1.00063e-06
1.60311e-09
1.00103e-06
2.09959e-09
1.0014e-06
2.376e-09
1.00174e-06
2.67659e-09
1.00205e-06
3.04001e-09
1.00235e-06
3.47597e-09
1.00263e-06
3.9921e-09
1.00293e-06
4.59592e-09
1.00324e-06
5.30334e-09
1.00358e-06
6.13036e-09
1.00396e-06
7.09477e-09
1.0044e-06
8.21885e-09
1.00492e-06
9.52617e-09
1.00555e-06
1.10443e-08
1.0063e-06
1.28022e-08
1.0072e-06
1.48306e-08
1.00832e-06
1.71652e-08
1.00968e-06
1.98411e-08
1.01135e-06
2.28929e-08
1.01342e-06
2.63538e-08
1.01597e-06
3.0251e-08
1.01912e-06
3.46013e-08
1.02301e-06
3.94059e-08
1.02777e-06
4.46406e-08
1.03359e-06
5.02591e-08
1.04063e-06
5.61264e-08
1.04908e-06
6.22308e-08
1.05902e-06
6.79829e-08
7.39821e-08
1.07072e-06
1.00028e-06
1.43332e-10
1.00076e-06
1.12807e-09
1.00124e-06
1.61679e-09
1.00169e-06
1.92764e-09
1.0021e-06
2.26443e-09
1.00248e-06
2.65375e-09
1.00286e-06
3.10037e-09
1.00324e-06
3.61335e-09
1.00363e-06
4.20059e-09
1.00406e-06
4.87443e-09
1.00454e-06
5.65242e-09
1.00508e-06
6.55207e-09
1.00571e-06
7.59178e-09
1.00644e-06
8.79385e-09
1.00731e-06
1.01818e-08
1.00833e-06
1.178e-08
1.00954e-06
1.36148e-08
1.011e-06
1.57137e-08
1.01273e-06
1.8103e-08
1.01482e-06
2.08076e-08
1.01732e-06
2.38498e-08
1.02033e-06
2.72441e-08
1.02394e-06
3.09945e-08
1.02825e-06
3.50901e-08
1.0334e-06
3.94957e-08
1.0395e-06
4.41576e-08
1.04667e-06
4.89507e-08
1.05505e-06
5.38577e-08
1.06465e-06
5.83804e-08
6.29664e-08
1.07567e-06
1.00035e-06
-2.04454e-10
1.00092e-06
5.54926e-10
1.00149e-06
1.04678e-09
1.00201e-06
1.40811e-09
1.00248e-06
1.78999e-09
1.00293e-06
2.20715e-09
1.00337e-06
2.66002e-09
1.00383e-06
3.15969e-09
1.00431e-06
3.71658e-09
1.00484e-06
4.34166e-09
1.00544e-06
5.05318e-09
1.00613e-06
5.86766e-09
1.00692e-06
6.80206e-09
1.00783e-06
7.8763e-09
1.00891e-06
9.10955e-09
1.01016e-06
1.05218e-08
1.01164e-06
1.21353e-08
1.01339e-06
1.39705e-08
1.01544e-06
1.60476e-08
1.01786e-06
1.83846e-08
1.02072e-06
2.09938e-08
1.02408e-06
2.38808e-08
1.02804e-06
2.70417e-08
1.03267e-06
3.04594e-08
1.03807e-06
3.40956e-08
1.04433e-06
3.78971e-08
1.05153e-06
4.17526e-08
1.05974e-06
4.56408e-08
1.06897e-06
4.91514e-08
5.26107e-08
1.07933e-06
1.00045e-06
-6.51768e-10
1.00114e-06
-1.40704e-10
1.0018e-06
3.88286e-10
1.00238e-06
8.3032e-10
1.0029e-06
1.27204e-09
1.00338e-06
1.71938e-09
1.00387e-06
2.17384e-09
1.00438e-06
2.64942e-09
1.00494e-06
3.16141e-09
1.00556e-06
3.72316e-09
1.00626e-06
4.35177e-09
1.00706e-06
5.06317e-09
1.00799e-06
5.87334e-09
1.00907e-06
6.79894e-09
1.01032e-06
7.85632e-09
1.01178e-06
9.06199e-09
1.01348e-06
1.04339e-08
1.01547e-06
1.19864e-08
1.01778e-06
1.37335e-08
1.02048e-06
1.56884e-08
1.02361e-06
1.78577e-08
1.02725e-06
2.02418e-08
1.03146e-06
2.28321e-08
1.03631e-06
2.56088e-08
1.04187e-06
2.85345e-08
1.04821e-06
3.15609e-08
1.05537e-06
3.45945e-08
1.06339e-06
3.76125e-08
1.07226e-06
4.02899e-08
4.28569e-08
1.08201e-06
1.00063e-06
-1.28107e-09
1.00146e-06
-9.74654e-10
1.0022e-06
-3.52128e-10
1.00281e-06
2.24098e-10
1.00334e-06
7.43682e-10
1.00384e-06
1.21854e-09
1.00435e-06
1.66531e-09
1.00489e-06
2.10364e-09
1.0055e-06
2.55511e-09
1.00619e-06
3.03773e-09
1.00697e-06
3.5673e-09
1.00787e-06
4.15968e-09
1.00892e-06
4.8294e-09
1.01013e-06
5.58992e-09
1.01153e-06
6.45505e-09
1.01315e-06
7.43758e-09
1.01503e-06
8.55064e-09
1.01722e-06
9.80558e-09
1.01974e-06
1.12122e-08
1.02265e-06
1.27785e-08
1.026e-06
1.45072e-08
1.02984e-06
1.63959e-08
1.03424e-06
1.84352e-08
1.03924e-06
2.06059e-08
1.0449e-06
2.28747e-08
1.05126e-06
2.52006e-08
1.05835e-06
2.75097e-08
1.06618e-06
2.97791e-08
1.07471e-06
3.17614e-08
3.36152e-08
1.08395e-06
1.00095e-06
-2.22804e-09
1.00197e-06
-1.99863e-09
1.00273e-06
-1.11424e-09
1.00331e-06
-3.51991e-10
1.0038e-06
2.48056e-10
1.00428e-06
7.39318e-10
1.00479e-06
1.16147e-09
1.00535e-06
1.54472e-09
1.00598e-06
1.91852e-09
1.00672e-06
2.30497e-09
1.00756e-06
2.7203e-09
1.00854e-06
3.17939e-09
1.00968e-06
3.69454e-09
1.01099e-06
4.27637e-09
1.01251e-06
4.93573e-09
1.01427e-06
5.68273e-09
1.01629e-06
6.52587e-09
1.01862e-06
7.47293e-09
1.0213e-06
8.53111e-09
1.02438e-06
9.70499e-09
1.02789e-06
1.09956e-08
1.03189e-06
1.23996e-08
1.03641e-06
1.39074e-08
1.04152e-06
1.55026e-08
1.04723e-06
1.71601e-08
1.05359e-06
1.88465e-08
1.06059e-06
2.05069e-08
1.06825e-06
2.21212e-08
1.0765e-06
2.35121e-08
2.47788e-08
1.08533e-06
1.00165e-06
-3.87601e-09
1.00281e-06
-3.16135e-09
1.00353e-06
-1.83516e-09
1.00397e-06
-7.86715e-10
1.00433e-06
-1.16062e-10
1.00472e-06
3.52697e-10
1.00518e-06
7.02491e-10
1.00572e-06
9.97904e-10
1.00637e-06
1.27062e-09
1.00713e-06
1.54275e-09
1.00802e-06
1.82986e-09
1.00906e-06
2.14353e-09
1.01026e-06
2.49268e-09
1.01165e-06
2.88554e-09
1.01326e-06
3.32945e-09
1.01511e-06
3.83129e-09
1.01724e-06
4.39626e-09
1.01968e-06
5.02911e-09
1.02248e-06
5.73485e-09
1.02567e-06
6.51553e-09
1.02929e-06
7.37063e-09
1.0334e-06
8.29803e-09
1.03801e-06
9.291e-09
1.04318e-06
1.03365e-08
1.04892e-06
1.14179e-08
1.05525e-06
1.25118e-08
1.06218e-06
1.35807e-08
1.06969e-06
1.46075e-08
1.07773e-06
1.54804e-08
1.62251e-08
1.08628e-06
1.00252e-06
-6.39608e-09
1.00396e-06
-4.60287e-09
1.00432e-06
-2.18859e-09
1.00447e-06
-9.39693e-10
1.00467e-06
-3.1382e-10
1.00496e-06
5.48131e-11
1.00537e-06
2.91506e-10
1.0059e-06
4.71411e-10
1.00655e-06
6.22798e-10
1.00733e-06
7.65766e-10
1.00824e-06
9.12635e-10
1.00932e-06
1.07108e-09
1.01056e-06
1.24649e-09
1.012e-06
1.44343e-09
1.01367e-06
1.66517e-09
1.01558e-06
1.91531e-09
1.01778e-06
2.19679e-09
1.0203e-06
2.51146e-09
1.02317e-06
2.86167e-09
1.02644e-06
3.24866e-09
1.03014e-06
3.67176e-09
1.03431e-06
4.12953e-09
1.03898e-06
4.6185e-09
1.04419e-06
5.13182e-09
1.04994e-06
5.66181e-09
1.05626e-06
6.19584e-09
1.06312e-06
6.71428e-09
1.07053e-06
7.20406e-09
1.0784e-06
7.61055e-09
7.85643e-09
1.08677e-06
9.93604e-07
9.89001e-07
9.86812e-07
9.85873e-07
9.85559e-07
9.85614e-07
9.85905e-07
9.86377e-07
9.86999e-07
9.87765e-07
9.88678e-07
9.89749e-07
9.90995e-07
9.92439e-07
9.94104e-07
9.96019e-07
9.98216e-07
1.00073e-06
1.00359e-06
1.00684e-06
1.01051e-06
1.01464e-06
1.01926e-06
1.02439e-06
1.03005e-06
1.03625e-06
1.04296e-06
1.05017e-06
1.05778e-06
1.06563e-06
6.96843e-07
-8.03263e-08
7.72429e-07
-7.55853e-08
8.24462e-07
-5.20328e-08
8.68524e-07
-4.40623e-08
9.11837e-07
-4.33134e-08
9.59773e-07
-4.79358e-08
1.03067e-06
-7.08927e-08
1.1245e-06
-9.38329e-08
1.42992e-06
-3.05423e-07
-3.98082e-07
1.828e-06
8.18852e-07
-1.10447e-07
8.43867e-07
-1.006e-07
8.71137e-07
-7.93038e-08
9.02246e-07
-7.51711e-08
9.40109e-07
-8.11758e-08
9.87265e-07
-9.50916e-08
1.05666e-06
-1.40286e-07
1.14497e-06
-1.82142e-07
1.21094e-06
-3.71392e-07
-5.32689e-07
1.34554e-06
8.65013e-07
-1.3623e-07
8.92912e-07
-1.28498e-07
9.275e-07
-1.13892e-07
9.64754e-07
-1.12425e-07
1.00552e-06
-1.21941e-07
1.05439e-06
-1.43966e-07
1.10718e-06
-1.93076e-07
1.18058e-06
-2.55538e-07
1.24703e-06
-4.3784e-07
-5.67511e-07
1.28185e-06
9.23598e-07
-1.52517e-07
9.39205e-07
-1.44105e-07
9.59677e-07
-1.34364e-07
9.83527e-07
-1.36275e-07
1.01205e-06
-1.50463e-07
1.04673e-06
-1.78647e-07
1.0825e-06
-2.28841e-07
1.12601e-06
-2.99054e-07
1.11463e-06
-4.26462e-07
-5.53846e-07
1.10097e-06
9.57873e-07
-1.61949e-07
9.70492e-07
-1.56724e-07
9.8823e-07
-1.52103e-07
1.00959e-06
-1.57634e-07
1.0337e-06
-1.74575e-07
1.05936e-06
-2.04304e-07
1.08259e-06
-2.52072e-07
1.10127e-06
-3.17732e-07
1.09323e-06
-4.18425e-07
-5.1622e-07
1.0556e-06
9.88846e-07
-1.68076e-07
9.97218e-07
-1.65097e-07
1.00934e-06
-1.64229e-07
1.02313e-06
-1.71421e-07
1.03763e-06
-1.89078e-07
1.05076e-06
-2.17434e-07
1.05895e-06
-2.60261e-07
1.06078e-06
-3.19563e-07
1.04082e-06
-3.98457e-07
-4.76487e-07
1.00108e-06
1.01076e-06
-1.70044e-07
1.01482e-06
-1.69156e-07
1.02153e-06
-1.70944e-07
1.0291e-06
-1.78985e-07
1.03601e-06
-1.95996e-07
1.04123e-06
-2.22651e-07
1.04238e-06
-2.61405e-07
1.03471e-06
-3.11892e-07
1.00991e-06
-3.7366e-07
-4.34306e-07
9.67727e-07
1.02742e-06
-1.68369e-07
1.02716e-06
-1.68894e-07
1.02869e-06
-1.72478e-07
1.03049e-06
-1.80783e-07
1.03136e-06
-1.96863e-07
1.03016e-06
-2.21454e-07
1.02407e-06
-2.55318e-07
1.00969e-06
-2.97512e-07
9.82473e-07
-3.46439e-07
-3.93182e-07
9.4135e-07
1.03938e-06
-1.63803e-07
1.03522e-06
-1.64744e-07
1.03228e-06
-1.69534e-07
1.02968e-06
-1.78186e-07
1.02595e-06
-1.93132e-07
1.01956e-06
-2.15066e-07
1.00821e-06
-2.43963e-07
9.89592e-07
-2.78894e-07
9.6074e-07
-3.17588e-07
-3.5391e-07
9.21469e-07
1.04801e-06
-1.56399e-07
1.04102e-06
-1.57753e-07
1.03463e-06
-1.63143e-07
1.02811e-06
-1.71674e-07
1.0202e-06
-1.85214e-07
1.00944e-06
-2.0431e-07
9.94173e-07
-2.28697e-07
9.7274e-07
-2.57462e-07
9.43215e-07
-2.88062e-07
-3.16625e-07
9.05929e-07
1.05428e-06
-1.46559e-07
1.04489e-06
-1.48356e-07
1.03555e-06
-1.53809e-07
1.02571e-06
-1.6183e-07
1.0143e-06
-1.73807e-07
1.00019e-06
-1.902e-07
9.82118e-07
-2.10622e-07
9.58815e-07
-2.34159e-07
9.29155e-07
-2.58402e-07
-2.81132e-07
8.93663e-07
1.05881e-06
-1.34651e-07
1.04727e-06
-1.36809e-07
1.03544e-06
-1.41988e-07
1.02286e-06
-1.49244e-07
1.00868e-06
-1.59625e-07
9.92019e-07
-1.73542e-07
9.71911e-07
-1.90514e-07
9.47396e-07
-2.09644e-07
9.17887e-07
-2.28894e-07
-2.4715e-07
8.83904e-07
1.06207e-06
-1.21052e-07
1.04861e-06
-1.23352e-07
1.03471e-06
-1.28083e-07
1.01992e-06
-1.3446e-07
1.00358e-06
-1.43282e-07
9.84997e-07
-1.54961e-07
9.63416e-07
-1.68933e-07
9.38137e-07
-1.84365e-07
9.08897e-07
-1.99654e-07
-2.14392e-07
8.76139e-07
1.06435e-06
-1.0607e-07
1.04929e-06
-1.08293e-07
1.03368e-06
-1.12478e-07
1.01716e-06
-1.17941e-07
9.99166e-07
-1.25285e-07
9.7914e-07
-1.34935e-07
9.56496e-07
-1.46289e-07
9.30745e-07
-1.58614e-07
9.01799e-07
-1.70708e-07
-1.82598e-07
8.70005e-07
1.06591e-06
-8.9969e-08
1.04957e-06
-9.1953e-08
1.03262e-06
-9.55326e-08
1.01477e-06
-1.00083e-07
9.95524e-07
-1.06042e-07
9.74427e-07
-1.13838e-07
9.51024e-07
-1.22886e-07
9.24984e-07
-1.32575e-07
8.96308e-07
-1.42032e-07
-1.51534e-07
8.65245e-07
1.06697e-06
-7.29912e-08
1.04966e-06
-7.46407e-08
1.0317e-06
-7.75715e-08
1.01284e-06
-8.12206e-08
9.92682e-07
-8.58866e-08
9.70811e-07
-9.19667e-08
9.46878e-07
-9.89532e-08
9.20662e-07
-1.06358e-07
8.92207e-07
-1.13577e-07
-1.20983e-07
8.61656e-07
1.0677e-06
-5.53589e-08
1.04969e-06
-5.66292e-08
1.031e-06
-5.88828e-08
1.01142e-06
-6.16403e-08
9.90623e-07
-6.50898e-08
9.68218e-07
-6.95617e-08
9.4393e-07
-7.46656e-08
9.17609e-07
-8.0037e-08
8.89317e-07
-8.5285e-08
-9.07439e-08
8.59077e-07
1.06818e-06
-3.72584e-08
1.0497e-06
-3.81533e-08
1.03054e-06
-3.9715e-08
1.01048e-06
-4.15848e-08
9.89266e-07
-4.38758e-08
9.66525e-07
-4.68204e-08
9.42019e-07
-5.01593e-08
9.15642e-07
-5.36605e-08
8.87457e-07
-5.70999e-08
-6.06319e-08
8.57345e-07
1.06827e-06
-1.87577e-08
1.04949e-06
-1.9376e-08
1.03002e-06
-2.02426e-08
1.00964e-06
-2.12133e-08
9.88148e-07
-2.23797e-08
9.65228e-07
-2.39002e-08
9.4058e-07
-2.55117e-08
9.14152e-07
-2.72321e-08
8.85988e-07
-2.89363e-08
-3.05421e-08
8.55899e-07
1.04687e-06
1.0275e-06
1.00726e-06
9.86043e-07
9.63663e-07
9.39763e-07
9.14251e-07
8.87019e-07
8.58083e-07
8.27541e-07
7.16005e-08
-7.16005e-08
1.78842e-07
-1.07241e-07
2.7374e-07
-9.48983e-08
3.57164e-07
-8.34243e-08
4.26189e-07
-6.90252e-08
4.81118e-07
-5.49289e-08
5.23993e-07
-4.28745e-08
5.57229e-07
-3.32358e-08
5.83015e-07
-2.57858e-08
6.03128e-07
-2.01137e-08
6.18938e-07
-1.58101e-08
6.31473e-07
-1.25342e-08
6.41497e-07
-1.00241e-08
6.49579e-07
-8.08271e-09
6.56146e-07
-6.56628e-09
6.61517e-07
-5.37088e-09
6.65936e-07
-4.41946e-09
6.69591e-07
-3.65515e-09
6.72628e-07
-3.0366e-09
6.7516e-07
-2.53259e-09
6.7728e-07
-2.11917e-09
6.79058e-07
-1.77819e-09
6.80553e-07
-1.49574e-09
6.81814e-07
-1.26058e-09
6.82878e-07
-1.06376e-09
6.83776e-07
-8.98406e-10
6.84535e-07
-7.59196e-10
6.85177e-07
-6.41704e-10
6.85719e-07
-5.42239e-10
6.86177e-07
-4.57725e-10
6.86563e-07
-3.85585e-10
6.86886e-07
-3.23666e-10
6.87156e-07
-2.70168e-10
6.8738e-07
-2.23711e-10
6.87563e-07
-1.83177e-10
6.87711e-07
-1.47516e-10
6.87827e-07
-1.15762e-10
6.87913e-07
-8.6601e-11
6.87976e-07
-6.2632e-11
-2.64824e-11
6.76347e-08
-1.39235e-07
1.88407e-07
-2.28013e-07
2.89704e-07
-1.96195e-07
3.77883e-07
-1.71604e-07
4.49501e-07
-1.40643e-07
5.05624e-07
-1.11052e-07
5.49016e-07
-8.62659e-08
5.82494e-07
-6.67136e-08
6.0843e-07
-5.17226e-08
6.28674e-07
-4.03578e-08
6.44615e-07
-3.1751e-08
6.57282e-07
-2.5201e-08
6.67436e-07
-2.01778e-08
6.75641e-07
-1.62884e-08
6.82321e-07
-1.3246e-08
6.87794e-07
-1.08438e-08
6.92304e-07
-8.92965e-09
6.9604e-07
-7.39059e-09
6.99147e-07
-6.14366e-09
7.01741e-07
-5.12659e-09
7.03913e-07
-4.29159e-09
7.05737e-07
-3.60221e-09
7.07272e-07
-3.0306e-09
7.08566e-07
-2.55457e-09
7.09659e-07
-2.15627e-09
7.10582e-07
-1.82172e-09
7.11363e-07
-1.5399e-09
7.12023e-07
-1.3018e-09
7.1258e-07
-1.10001e-09
7.13051e-07
-9.28478e-10
7.13448e-07
-7.82104e-10
7.13781e-07
-6.5657e-10
7.14059e-07
-5.48286e-10
7.14289e-07
-4.54323e-10
7.14478e-07
-3.72235e-10
7.14631e-07
-2.99842e-10
7.1475e-07
-2.35333e-10
7.1484e-07
-1.75856e-10
7.14904e-07
-1.27272e-10
-5.4046e-11
5.10834e-08
-1.90319e-07
1.91433e-07
-3.68363e-07
3.00706e-07
-3.05467e-07
3.92694e-07
-2.63592e-07
4.6405e-07
-2.11999e-07
5.18072e-07
-1.65074e-07
5.58978e-07
-1.27172e-07
5.90218e-07
-9.79539e-08
6.14351e-07
-7.58548e-08
6.33213e-07
-5.92204e-08
6.48122e-07
-4.66595e-08
6.60024e-07
-3.71031e-08
6.6961e-07
-2.97644e-08
6.77394e-07
-2.40716e-08
6.83757e-07
-1.96089e-08
6.88989e-07
-1.60763e-08
6.93315e-07
-1.32553e-08
6.96907e-07
-1.09832e-08
6.99902e-07
-9.1388e-09
7.02408e-07
-7.6318e-09
7.04509e-07
-6.39318e-09
7.06277e-07
-5.36962e-09
7.07766e-07
-4.51981e-09
7.09023e-07
-3.81129e-09
7.10084e-07
-3.21816e-09
7.10983e-07
-2.71979e-09
7.11742e-07
-2.29968e-09
7.12385e-07
-1.94451e-09
7.12928e-07
-1.64343e-09
7.13387e-07
-1.38741e-09
7.13774e-07
-1.16885e-09
7.14099e-07
-9.81369e-10
7.1437e-07
-8.19673e-10
7.14595e-07
-6.79363e-10
7.1478e-07
-5.56723e-10
7.14928e-07
-4.48496e-10
7.15045e-07
-3.52065e-10
7.15133e-07
-2.63169e-10
7.15196e-07
-1.90629e-10
-8.11355e-11
2.64406e-08
-2.16759e-07
1.93414e-07
-5.35336e-07
3.20116e-07
-4.32169e-07
4.17842e-07
-3.61319e-07
4.87525e-07
-2.81682e-07
5.37414e-07
-2.14963e-07
5.74038e-07
-1.63796e-07
6.01659e-07
-1.25576e-07
6.22976e-07
-9.71714e-08
6.39726e-07
-7.59704e-08
6.53072e-07
-6.00054e-08
6.63821e-07
-4.78521e-08
6.72553e-07
-3.84964e-08
6.79697e-07
-3.12157e-08
6.85578e-07
-2.54894e-08
6.90442e-07
-2.09412e-08
6.94485e-07
-1.72974e-08
6.97856e-07
-1.43547e-08
7.00677e-07
-1.19601e-08
7.03045e-07
-9.99907e-09
7.05036e-07
-8.38427e-09
7.06714e-07
-7.04779e-09
7.08131e-07
-5.93657e-09
7.09328e-07
-5.00883e-09
7.10341e-07
-4.23136e-09
7.11199e-07
-3.57759e-09
7.11926e-07
-3.02613e-09
7.12541e-07
-2.55963e-09
7.13061e-07
-2.16392e-09
7.13501e-07
-1.82724e-09
7.13872e-07
-1.53967e-09
7.14183e-07
-1.29291e-09
7.14444e-07
-1.08004e-09
7.1466e-07
-8.95308e-10
7.14837e-07
-7.338e-10
7.1498e-07
-5.91239e-10
7.15092e-07
-4.64213e-10
7.15176e-07
-3.47112e-10
7.15236e-07
-2.51505e-10
-1.07203e-10
-4.21741e-08
-1.74585e-07
1.84873e-07
-7.62384e-07
3.54124e-07
-6.0142e-07
4.56987e-07
-4.64181e-07
5.21228e-07
-3.45923e-07
5.6375e-07
-2.57485e-07
5.93858e-07
-1.93904e-07
6.16419e-07
-1.48137e-07
6.3399e-07
-1.14743e-07
6.48011e-07
-8.99908e-08
6.59368e-07
-7.13628e-08
6.6866e-07
-5.71437e-08
6.76313e-07
-4.61502e-08
6.82651e-07
-3.7553e-08
6.8792e-07
-3.07591e-08
6.92318e-07
-2.53384e-08
6.95998e-07
-2.09776e-08
6.99086e-07
-1.7443e-08
7.01684e-07
-1.45578e-08
7.03873e-07
-1.21883e-08
7.05721e-07
-1.02324e-08
7.07284e-07
-8.61029e-09
7.08606e-07
-7.25908e-09
7.09726e-07
-6.12913e-09
7.10676e-07
-5.18098e-09
7.11481e-07
-4.38288e-09
7.12164e-07
-3.70906e-09
7.12743e-07
-3.13858e-09
7.13234e-07
-2.6543e-09
7.13648e-07
-2.24195e-09
7.13998e-07
-1.88954e-09
7.14292e-07
-1.58699e-09
7.14538e-07
-1.32594e-09
7.14742e-07
-1.09934e-09
7.1491e-07
-9.01173e-10
7.15045e-07
-7.26215e-10
7.15151e-07
-5.70297e-10
7.1523e-07
-4.26534e-10
7.15288e-07
-3.091e-10
-1.31907e-10
8.3322e-08
-2.57907e-07
2.51446e-07
-9.30508e-07
4.22341e-07
-7.72315e-07
5.16071e-07
-5.5791e-07
5.66544e-07
-3.96397e-07
5.96849e-07
-2.8779e-07
6.17778e-07
-2.14832e-07
6.33848e-07
-1.64207e-07
6.46875e-07
-1.27769e-07
6.57682e-07
-1.00798e-07
6.66733e-07
-8.0414e-08
6.74343e-07
-6.4753e-08
6.80751e-07
-5.25584e-08
6.86153e-07
-4.29549e-08
6.90711e-07
-3.5317e-08
6.9456e-07
-2.9188e-08
6.97814e-07
-2.42318e-08
7.00568e-07
-2.01963e-08
7.029e-07
-1.68896e-08
7.04876e-07
-1.4165e-08
7.06553e-07
-1.19092e-08
7.07976e-07
-1.00336e-08
7.09185e-07
-8.46783e-09
7.10212e-07
-7.1561e-09
7.11085e-07
-6.05367e-09
7.11826e-07
-5.12444e-09
7.12456e-07
-4.33904e-09
7.12991e-07
-3.67345e-09
7.13445e-07
-3.10792e-09
7.13829e-07
-2.62598e-09
7.14153e-07
-2.21379e-09
7.14426e-07
-1.85975e-09
7.14654e-07
-1.55415e-09
7.14843e-07
-1.28879e-09
7.14999e-07
-1.05667e-09
7.15124e-07
-8.51674e-10
7.15223e-07
-6.68937e-10
7.15297e-07
-5.00392e-10
7.1535e-07
-3.62662e-10
-1.54894e-10
4.23929e-07
-6.81836e-07
4.2902e-07
-9.35599e-07
5.50011e-07
-8.93306e-07
6.04749e-07
-6.12648e-07
6.24705e-07
-4.16353e-07
6.35489e-07
-2.98574e-07
6.44462e-07
-2.23806e-07
6.52936e-07
-1.72681e-07
6.60927e-07
-1.3576e-07
6.68262e-07
-1.08134e-07
6.74839e-07
-8.6991e-08
6.80641e-07
-7.05548e-08
6.85703e-07
-5.76204e-08
6.90087e-07
-4.73386e-08
6.93864e-07
-3.9094e-08
6.97108e-07
-3.24319e-08
6.99887e-07
-2.70113e-08
7.02265e-07
-2.25742e-08
7.04297e-07
-1.89218e-08
7.06033e-07
-1.59006e-08
7.07515e-07
-1.33907e-08
7.08779e-07
-1.12977e-08
7.09857e-07
-9.54616e-09
7.10777e-07
-8.07563e-09
7.1156e-07
-6.8375e-09
7.12228e-07
-5.79228e-09
7.12797e-07
-4.90767e-09
7.13281e-07
-4.15714e-09
7.13692e-07
-3.51878e-09
7.1404e-07
-2.97426e-09
7.14334e-07
-2.50819e-09
7.14582e-07
-2.10764e-09
7.1479e-07
-1.76172e-09
7.14962e-07
-1.46123e-09
7.15104e-07
-1.19829e-09
7.15218e-07
-9.66001e-10
7.15308e-07
-7.5886e-10
7.15375e-07
-5.67725e-10
7.15424e-07
-4.11498e-10
-1.7584e-10
1.76599e-06
-6.19817e-07
1.44188e-06
-6.11497e-07
1.04525e-06
-4.96676e-07
8.35905e-07
-4.033e-07
7.47699e-07
-3.28147e-07
7.15889e-07
-2.66764e-07
7.06978e-07
-2.14895e-07
7.06646e-07
-1.72349e-07
7.09497e-07
-1.38611e-07
7.13477e-07
-1.12114e-07
7.17726e-07
-9.12396e-08
7.21855e-07
-7.4684e-08
7.25689e-07
-6.14547e-08
7.29158e-07
-5.0807e-08
7.32244e-07
-4.21804e-08
7.34961e-07
-3.51486e-08
7.37334e-07
-2.93847e-08
7.39396e-07
-2.46361e-08
7.4118e-07
-2.07061e-08
7.4272e-07
-1.74401e-08
7.44045e-07
-1.4716e-08
7.45184e-07
-1.24364e-08
7.46161e-07
-1.05231e-08
7.46998e-07
-8.91279e-09
7.47715e-07
-7.55407e-09
7.48327e-07
-6.40494e-09
7.4885e-07
-5.43083e-09
7.49296e-07
-4.60324e-09
7.49676e-07
-3.8985e-09
7.49999e-07
-3.2967e-09
7.50272e-07
-2.78114e-09
7.50502e-07
-2.33773e-09
7.50695e-07
-1.95458e-09
7.50855e-07
-1.62159e-09
7.50987e-07
-1.33009e-09
7.51093e-07
-1.07247e-09
7.51177e-07
-8.42643e-10
7.5124e-07
-6.30499e-10
7.51285e-07
-4.57035e-10
-1.95344e-10
1.07628e-06
-3.50553e-07
9.05889e-07
-4.41108e-07
8.1654e-07
-4.07328e-07
7.7573e-07
-3.6249e-07
7.53886e-07
-3.06303e-07
7.38879e-07
-2.51757e-07
7.29752e-07
-2.05768e-07
7.25516e-07
-1.68113e-07
7.24496e-07
-1.3759e-07
7.25327e-07
-1.12945e-07
7.27126e-07
-9.3039e-08
7.29362e-07
-7.69202e-08
7.31727e-07
-6.38193e-08
7.34046e-07
-5.3126e-08
7.36226e-07
-4.43608e-08
7.38223e-07
-3.71456e-08
7.40021e-07
-3.1182e-08
7.41619e-07
-2.62339e-08
7.43027e-07
-2.21141e-08
7.44259e-07
-1.86728e-08
7.45333e-07
-1.57897e-08
7.46265e-07
-1.33679e-08
7.4707e-07
-1.13287e-08
7.47765e-07
-9.60773e-09
7.48363e-07
-8.15223e-09
7.48877e-07
-6.91872e-09
7.49317e-07
-5.87126e-09
7.49694e-07
-4.98003e-09
7.50016e-07
-4.22009e-09
7.5029e-07
-3.57041e-09
7.50522e-07
-3.01328e-09
7.50718e-07
-2.53375e-09
7.50882e-07
-2.11912e-09
7.51019e-07
-1.75858e-09
7.51132e-07
-1.4428e-09
7.51223e-07
-1.16359e-09
7.51295e-07
-9.14377e-10
7.51349e-07
-6.84264e-10
7.51388e-07
-4.96059e-10
-2.12077e-10
1.12088e-06
-1.89585e-07
9.93643e-07
-3.1387e-07
9.07323e-07
-3.21008e-07
8.39658e-07
-2.94825e-07
7.94174e-07
-2.60819e-07
7.67068e-07
-2.24651e-07
7.51477e-07
-1.90177e-07
7.42857e-07
-1.59493e-07
7.38457e-07
-1.3319e-07
7.36599e-07
-1.11087e-07
7.36254e-07
-9.26933e-08
7.3678e-07
-7.74461e-08
7.37779e-07
-6.48187e-08
7.39005e-07
-5.43525e-08
7.40308e-07
-4.56632e-08
7.41596e-07
-3.84337e-08
7.42818e-07
-3.24041e-08
7.43947e-07
-2.73629e-08
7.44971e-07
-2.31381e-08
7.45888e-07
-1.95895e-08
7.46701e-07
-1.66025e-08
7.47416e-07
-1.40832e-08
7.48042e-07
-1.19545e-08
7.48587e-07
-1.01527e-08
7.49059e-07
-8.62499e-09
7.49468e-07
-7.32742e-09
7.4982e-07
-6.22352e-09
7.50123e-07
-5.28275e-09
7.50382e-07
-4.47943e-09
7.50604e-07
-3.79182e-09
7.50792e-07
-3.20157e-09
7.50951e-07
-2.69309e-09
7.51085e-07
-2.25314e-09
7.51197e-07
-1.87034e-09
7.51289e-07
-1.53487e-09
7.51364e-07
-1.23809e-09
7.51422e-07
-9.7308e-10
7.51467e-07
-7.28293e-10
7.51499e-07
-5.28048e-10
-2.25826e-10
1.05007e-06
-1.38687e-07
9.66202e-07
-2.3e-07
8.96395e-07
-2.51201e-07
8.45956e-07
-2.44386e-07
8.09992e-07
-2.24855e-07
7.85023e-07
-1.99683e-07
7.68309e-07
-1.73462e-07
7.57541e-07
-1.48725e-07
7.50879e-07
-1.26528e-07
7.46968e-07
-1.07177e-07
7.44861e-07
-9.05856e-08
7.43912e-07
-7.64976e-08
7.43692e-07
-6.45986e-08
7.43915e-07
-5.45754e-08
7.44393e-07
-4.61409e-08
7.45002e-07
-3.90434e-08
7.45666e-07
-3.30674e-08
7.46333e-07
-2.80304e-08
7.46975e-07
-2.378e-08
7.47574e-07
-2.01889e-08
7.48123e-07
-1.7151e-08