/*--------------------------------*- C++ -*----------------------------------*\
| =========                 |                                                 |
| \\      /  F ield         | OpenFOAM: The Open Source CFD Toolbox           |
|  \\    /   O peration     | Version:  2112                                  |
|   \\  /    A nd           | Website:  www.openfoam.com                      |
|    \\/     M anipulation  |                                                 |
\*---------------------------------------------------------------------------*/
FoamFile
{
    version     2.0;
    format      ascii;
    arch        "LSB;label=32;scalar=64";
    class       volScalarField;
    location    "0.09";
    object      nut;
}
// * * * * * * * * * * * * * * * * * * * * * * * * * * * * * * * * * * * * * //

dimensions      [0 2 -1 0 0 0 0];

internalField   nonuniform List<scalar> 
1880
(
3.69189e-11
2.80848e-12
1.09086e-12
7.49748e-13
1.88438e-12
2.15684e-14
4.37164e-13
6.85622e-13
1.19675e-12
5.23603e-13
1.48955e-13
2.30955e-14
3.83945e-15
2.20571e-16
2.86091e-18
3.11797e-16
5.22828e-16
4.33517e-15
2.1266e-15
3.96797e-14
2.57838e-14
4.21576e-13
6.97971e-13
4.12364e-12
7.44589e-12
2.86284e-11
3.42151e-11
2.74259e-10
1.4257e-09
6.0412e-09
5.17922e-09
3.82065e-09
8.67676e-09
4.51427e-10
9.86581e-10
3.79847e-11
3.04403e-10
1.83448e-10
3.75788e-10
2.33295e-10
8.20588e-11
1.29417e-11
1.23002e-12
6.91033e-15
1.09792e-13
1.48677e-12
2.81389e-12
1.44919e-11
1.01187e-11
9.90184e-11
3.17874e-11
5.76218e-10
2.02332e-10
2.1073e-09
2.10663e-09
5.71497e-09
1.2183e-08
2.14467e-08
3.70343e-08
7.56657e-08
2.31932e-09
5.60385e-09
1.21029e-08
5.13934e-10
7.19207e-09
1.76739e-09
7.98266e-09
4.0122e-09
6.05299e-09
7.86651e-10
2.70613e-10
9.88214e-11
6.38169e-10
9.40209e-10
1.28436e-09
1.8666e-09
2.37491e-09
3.33805e-09
3.74515e-09
5.65876e-09
5.38643e-09
9.42395e-09
7.42612e-09
1.46533e-08
1.24403e-08
2.13922e-08
2.68799e-08
3.18863e-08
5.13816e-08
4.47668e-08
1.41656e-11
4.48259e-09
1.47842e-08
4.43571e-10
2.84335e-09
1.31858e-09
9.49961e-09
1.52797e-10
3.81519e-09
1.63035e-09
3.38178e-09
1.784e-09
1.7797e-09
1.94287e-09
2.17651e-09
2.63664e-09
3.03211e-09
3.8738e-09
4.23158e-09
5.81031e-09
5.98319e-09
8.70963e-09
8.3709e-09
1.25297e-08
1.21423e-08
1.84322e-08
1.98393e-08
2.7944e-08
3.10999e-08
4.36927e-08
2.10247e-10
5.44012e-09
1.21083e-08
2.61685e-10
2.29528e-10
6.52997e-10
7.26259e-09
1.11329e-09
5.98992e-09
6.76901e-10
1.87277e-09
7.64927e-10
1.42711e-09
1.59807e-09
1.85248e-09
2.37731e-09
2.80764e-09
3.64072e-09
4.05373e-09
5.46675e-09
5.7578e-09
7.9815e-09
8.00512e-09
1.14995e-08
1.32211e-08
1.87541e-08
2.55409e-08
2.86562e-08
4.00471e-08
2.967e-08
4.03027e-11
4.17722e-09
1.42414e-08
1.39132e-10
2.22922e-09
1.95458e-09
1.01908e-08
1.62413e-10
3.26986e-09
1.17239e-10
2.9269e-09
8.22726e-10
9.3174e-10
1.26717e-09
1.63814e-09
2.17807e-09
2.66911e-09
3.45621e-09
4.00045e-09
5.2065e-09
5.81483e-09
7.44199e-09
7.98319e-09
1.03946e-08
1.19021e-08
1.56344e-08
1.82488e-08
2.0717e-08
2.31304e-08
3.12318e-08
1.20106e-10
4.45441e-09
1.34247e-08
3.27725e-10
3.01617e-09
1.56267e-09
9.0372e-09
1.00141e-09
1.22328e-09
2.8144e-10
2.55789e-09
5.35875e-10
8.90979e-10
1.18103e-09
1.55801e-09
2.07648e-09
2.59959e-09
3.29997e-09
3.95157e-09
4.91384e-09
5.7579e-09
6.86115e-09
7.84801e-09
9.45614e-09
1.20622e-08
1.50093e-08
1.97536e-08
1.9429e-08
2.52911e-08
2.20922e-08
1.56544e-10
4.26908e-09
1.39111e-08
4.23688e-10
5.02552e-09
2.39883e-09
1.01018e-08
8.07729e-10
3.23151e-09
5.52467e-10
2.74236e-09
8.82831e-10
9.46787e-10
1.22344e-09
1.60349e-09
2.05679e-09
2.59302e-09
3.18421e-09
3.92271e-09
4.65522e-09
5.69375e-09
6.39694e-09
7.6532e-09
8.69311e-09
1.09435e-08
1.3048e-08
1.54024e-08
1.65802e-08
1.81917e-08
2.40415e-08
2.56775e-10
3.96691e-09
1.39198e-08
6.36869e-10
5.39234e-09
2.59419e-09
1.00856e-08
1.2774e-09
5.31542e-09
9.70029e-10
2.66314e-09
1.18269e-09
1.18523e-09
1.39198e-09
1.7304e-09
2.10959e-09
2.62814e-09
3.11433e-09
3.89178e-09
4.43423e-09
5.58207e-09
5.99523e-09
7.42779e-09
8.05368e-09
1.03935e-08
1.20736e-08
1.45487e-08
1.5073e-08
1.72797e-08
1.96248e-08
4.51369e-10
3.45237e-09
1.4006e-08
8.17948e-10
5.46371e-09
2.90573e-09
1.02817e-08
1.58906e-09
6.12555e-09
1.3092e-09
2.76641e-09
1.48741e-09
1.4333e-09
1.59345e-09
1.89197e-09
2.20257e-09
2.6841e-09
3.08432e-09
3.85678e-09
4.26602e-09
5.43384e-09
5.69825e-09
7.15467e-09
7.58301e-09
9.5739e-09
1.09767e-08
1.2534e-08
1.39654e-08
1.50349e-08
1.84859e-08
4.68676e-10
2.68631e-09
1.41107e-08
9.34487e-10
5.07536e-09
3.15468e-09
1.04903e-08
1.83426e-09
6.37679e-09
1.60467e-09
2.92265e-09
1.76625e-09
1.66986e-09
1.79435e-09
2.05263e-09
2.30961e-09
2.74559e-09
3.07958e-09
3.8111e-09
4.13838e-09
5.26194e-09
5.46054e-09
6.86894e-09
7.2086e-09
8.95509e-09
1.01779e-08
1.14311e-08
1.28974e-08
1.39036e-08
1.66283e-08
7.57861e-11
1.75553e-09
1.41337e-08
9.90601e-10
4.13569e-09
3.12429e-09
1.02952e-08
2.23952e-09
6.69503e-09
1.89604e-09
3.01152e-09
1.99005e-09
1.88538e-09
1.97209e-09
2.19012e-09
2.40723e-09
2.79301e-09
3.08375e-09
3.75367e-09
4.04441e-09
5.07953e-09
5.28422e-09
6.57647e-09
6.92419e-09
8.37051e-09
9.49956e-09
1.04004e-08
1.20685e-08
1.28342e-08
1.50025e-08
5.84886e-10
1.18043e-09
1.43029e-08
9.36798e-10
3.1941e-09
3.34593e-09
1.06399e-08
2.28615e-09
6.28965e-09
2.11568e-09
3.32995e-09
2.22564e-09
2.03573e-09
2.10516e-09
2.2959e-09
2.47913e-09
2.81767e-09
3.08291e-09
3.68616e-09
3.96907e-09
4.89527e-09
5.14278e-09
6.29199e-09
6.69395e-09
7.89152e-09
8.95726e-09
9.66074e-09
1.13057e-08
1.19947e-08
1.38119e-08
3.69322e-10
1.43251e-09
1.37931e-08
9.54866e-10
1.87729e-09
2.79603e-09
9.7688e-09
2.74558e-09
6.71609e-09
2.39695e-09
3.17106e-09
2.29554e-09
2.17225e-09
2.18823e-09
2.3366e-09
2.50401e-09
2.80476e-09
3.06381e-09
3.60389e-09
3.90217e-09
4.71574e-09
5.02521e-09
6.02831e-09
6.49933e-09
7.49445e-09
8.51975e-09
9.09974e-09
1.06472e-08
1.12963e-08
1.26817e-08
7.73174e-11
3.26464e-09
1.47042e-08
7.15894e-10
1.14425e-09
3.22312e-09
1.09432e-08
2.43394e-09
5.80208e-09
2.53133e-09
3.57564e-09
2.52595e-09
2.20253e-09
2.20998e-09
2.34888e-09
2.49349e-09
2.7639e-09
3.02265e-09
3.51208e-09
3.836e-09
4.55011e-09
4.92272e-09
5.79398e-09
6.32802e-09
7.17431e-09
8.15803e-09
8.68204e-09
1.00832e-08
1.07134e-08
1.185e-08
3.29393e-10
5.33874e-09
1.25579e-08
9.36027e-10
3.50625e-09
2.1429e-09
8.4819e-09
3.19213e-09
7.01719e-09
2.77451e-09
3.33173e-09
2.3629e-09
2.20044e-09
2.12816e-09
2.22421e-09
2.39367e-09
2.66332e-09
2.94897e-09
3.40345e-09
3.76648e-09
4.39832e-09
4.83255e-09
5.59301e-09
6.17914e-09
6.91749e-09
7.85985e-09
8.36467e-09
9.61192e-09
1.024e-08
1.11794e-08
2.07757e-11
3.55039e-09
1.52773e-08
3.37685e-10
5.80442e-09
2.25558e-09
1.03689e-08
2.47217e-09
4.85268e-09
2.98586e-09
3.72501e-09
2.43289e-09
2.03208e-09
1.97374e-09
2.10625e-09
2.26871e-09
2.53763e-09
2.84653e-09
3.28407e-09
3.68513e-09
4.25713e-09
4.74831e-09
5.41705e-09
6.05488e-09
6.70592e-09
7.618e-09
8.12037e-09
9.23031e-09
9.8545e-09
1.07059e-08
2.56449e-09
6.04751e-09
1.24408e-08
1.15933e-09
1.18053e-08
2.99984e-09
8.3523e-09
3.50751e-09
6.3848e-09
3.06064e-10
3.49979e-09
1.20993e-08
9.76029e-09
9.81385e-10
9.01e-14
8.9507e-11
4.12142e-10
8.88169e-10
1.47912e-09
2.08874e-09
2.80337e-09
3.49765e-09
4.22462e-09
5.14477e-09
5.64339e-09
6.94648e-09
7.23384e-09
8.59659e-09
9.08022e-09
1.01825e-08
5.23733e-09
3.51407e-09
8.45911e-09
3.92198e-10
8.97793e-10
3.06261e-11
3.9999e-10
3.76437e-10
6.67364e-10
4.23026e-10
1.68201e-10
4.54629e-11
1.4357e-11
5.3812e-12
2.46172e-12
1.44282e-12
1.1573e-12
1.04441e-12
1.10888e-12
1.09605e-12
1.14473e-12
1.07683e-12
1.01979e-12
5.6772e-13
7.74524e-13
1.08545e-13
1.37735e-13
7.402e-14
8.73642e-13
2.66475e-12
3.62759e-11
2.71535e-12
1.07776e-12
6.89541e-13
1.79317e-12
2.35243e-14
5.322e-13
8.21109e-13
1.36624e-12
6.37154e-13
2.04956e-13
4.60659e-14
1.40458e-14
4.17841e-15
1.25183e-15
5.43489e-16
3.83032e-16
3.47431e-16
3.90591e-16
4.38729e-16
5.221e-16
6.55766e-16
6.72274e-16
9.1736e-16
8.61845e-16
1.22793e-15
6.87871e-16
1.25383e-15
1.74525e-16
5.72249e-17
4.8775e-08
1.67121e-09
3.33068e-09
2.7694e-09
4.10825e-08
2.87596e-09
3.03658e-09
2.41583e-08
7.62682e-09
7.41868e-09
8.12318e-08
1.31704e-07
1.35764e-08
8.08892e-08
2.59878e-08
7.6245e-07
9.13161e-07
2.314e-10
1.44308e-09
3.15547e-08
9.86339e-08
4.52847e-08
4.40002e-08
7.01746e-08
4.01978e-08
7.22424e-08
1.04323e-07
3.58406e-07
3.00266e-07
1.86395e-07
5.99956e-08
5.32757e-08
3.76753e-08
4.65583e-08
5.76817e-08
4.14434e-08
7.9364e-08
4.9365e-08
2.31571e-08
1.59531e-07
5.95899e-08
3.54621e-08
2.87083e-08
4.73941e-08
3.91348e-08
3.93428e-08
5.69178e-08
5.82306e-08
4.19348e-08
7.88777e-08
3.22421e-08
3.53851e-08
3.65176e-08
3.29475e-08
3.78886e-08
5.8419e-08
4.71265e-08
4.19498e-08
3.43456e-08
6.82428e-08
3.50691e-08
3.05984e-08
2.62909e-08
3.46758e-08
3.34931e-08
3.15677e-08
4.21696e-08
3.95307e-08
2.81167e-08
4.29859e-08
2.48189e-08
2.6098e-08
2.8942e-08
2.95264e-08
3.08859e-08
4.22065e-08
3.16728e-08
3.20597e-08
3.02614e-08
3.39672e-08
2.34679e-08
2.42348e-08
2.3912e-08
2.64222e-08
2.72655e-08
2.75482e-08
2.9925e-08
2.7889e-08
2.47287e-08
2.85779e-08
2.04669e-08
2.0718e-08
2.27152e-08
2.50956e-08
2.41196e-08
2.7212e-08
2.42961e-08
2.39916e-08
2.32145e-08
2.20801e-08
1.79146e-08
1.91637e-08
2.00093e-08
2.20718e-08
2.2346e-08
2.17041e-08
2.19681e-08
2.09115e-08
1.98016e-08
1.97524e-08
1.6477e-08
1.69804e-08
1.83376e-08
2.09338e-08
2.0124e-08
1.97622e-08
1.87691e-08
1.82323e-08
1.7608e-08
1.58286e-08
1.47209e-08
1.56744e-08
1.66207e-08
1.87248e-08
1.84079e-08
1.7216e-08
1.6786e-08
1.60226e-08
1.52723e-08
1.40507e-08
1.36329e-08
1.43425e-08
1.52677e-08
1.7104e-08
1.66587e-08
1.55946e-08
1.48045e-08
1.41149e-08
1.34063e-08
1.17104e-08
1.26131e-08
1.33668e-08
1.40879e-08
1.54223e-08
1.51382e-08
1.40794e-08
1.33429e-08
1.25494e-08
1.1753e-08
1.0223e-08
1.18892e-08
1.25334e-08
1.3129e-08
1.40186e-08
1.37881e-08
1.29323e-08
1.20933e-08
1.12588e-08
1.03782e-08
8.79782e-09
1.13335e-08
1.18897e-08
1.23472e-08
1.29183e-08
1.27305e-08
1.20479e-08
1.11753e-08
1.03311e-08
9.37396e-09
7.90706e-09
1.05485e-08
1.08725e-08
1.11061e-08
1.11633e-08
1.10279e-08
9.85034e-09
9.03795e-09
7.16114e-09
6.34245e-09
3.90103e-09
4.46138e-12
1.74479e-11
2.73966e-11
5.73269e-11
7.52936e-11
9.59188e-11
7.66818e-11
7.35548e-11
6.2336e-11
4.67305e-11
4.3352e-16
2.99689e-15
6.99034e-15
1.18502e-14
2.10874e-14
3.87717e-14
3.46858e-14
3.30726e-14
4.02974e-14
1.7648e-14
1.14881e-07
7.08894e-09
6.20586e-09
7.9536e-09
9.37956e-09
2.11203e-08
8.40539e-08
1.33082e-07
2.85084e-08
2.96615e-09
3.57906e-10
5.41163e-11
9.30406e-12
1.68816e-12
3.13467e-13
5.98733e-14
1.20144e-14
2.61037e-15
6.34663e-16
1.76743e-16
5.70931e-17
2.13779e-17
9.03837e-18
4.19123e-18
2.09363e-18
1.10623e-18
5.87234e-19
3.11726e-19
1.74032e-19
8.90475e-20
6.75819e-20
2.07481e-20
3.72047e-20
2.74954e-21
1.0787e-20
1.56175e-21
6.34828e-23
1.16723e-20
4.66562e-21
3.60737e-20
9.12578e-08
1.98426e-07
2.02389e-07
4.80503e-08
1.2084e-07
1.92103e-07
1.77628e-07
1.47105e-07
1.17587e-07
9.29741e-08
6.91264e-08
4.59495e-08
2.54163e-08
1.11883e-08
4.00264e-09
1.25494e-09
3.74639e-10
1.13289e-10
3.60342e-11
1.22821e-11
4.51406e-12
1.78729e-12
7.57473e-13
3.40274e-13
1.60571e-13
7.90434e-14
4.03481e-14
2.11151e-14
1.14202e-14
6.10665e-15
3.55516e-15
1.78946e-15
1.18065e-15
5.33563e-16
3.53098e-16
1.89724e-16
8.68029e-17
5.42193e-17
1.92317e-17
8.79993e-18
6.98694e-08
2.16993e-07
1.55132e-07
1.68621e-06
1.21835e-08
2.24936e-07
2.03104e-07
1.50387e-07
1.0957e-07
8.85684e-08
7.31952e-08
5.86769e-08
4.57835e-08
3.53677e-08
2.73457e-08
2.12162e-08
1.64399e-08
1.25925e-08
9.4022e-09
6.73794e-09
4.57027e-09
2.90757e-09
1.73223e-09
9.72533e-10
5.2099e-10
2.7025e-10
1.37825e-10
6.96628e-11
3.55395e-11
1.78724e-11
9.56622e-12
4.62423e-12
2.76504e-12
1.24615e-12
7.75354e-13
3.89192e-13
2.00854e-13
1.02948e-13
5.40804e-14
2.19652e-14
7.54586e-07
2.10344e-07
1.88087e-07
4.1432e-06
2.75632e-06
1.13325e-07
2.35977e-07
1.77151e-07
1.20993e-07
7.9615e-08
6.22792e-08
5.32338e-08
4.3826e-08
3.45089e-08
2.66645e-08
2.05977e-08
1.60501e-08
1.2654e-08
1.00947e-08
8.13871e-09
6.62132e-09
5.42726e-09
4.4755e-09
3.70812e-09
3.08319e-09
2.56929e-09
2.14347e-09
1.78632e-09
1.4873e-09
1.22766e-09
1.01675e-09
8.13633e-10
6.74042e-10
5.05968e-10
4.15765e-10
2.94144e-10
2.28922e-10
1.46011e-10
1.1645e-10
6.05858e-11
1.81134e-08
5.05475e-08
2.55045e-06
5.2297e-06
4.64807e-06
1.74204e-07
1.48304e-07
1.30982e-07
7.48521e-08
6.9043e-08
5.93056e-08
4.64618e-08
3.83908e-08
3.139e-08
2.49121e-08
1.95267e-08
1.53474e-08
1.2174e-08
9.7572e-09
7.89461e-09
6.43922e-09
5.28707e-09
4.36469e-09
3.6194e-09
3.01281e-09
2.51583e-09
2.10691e-09
1.76796e-09
1.48808e-09
1.25154e-09
1.06071e-09
8.88662e-10
7.6479e-10
6.31916e-10
5.56618e-10
4.53794e-10
4.07614e-10
3.26333e-10
3.06006e-10
2.3451e-10
4.03116e-07
7.58988e-08
5.38145e-07
5.37077e-06
4.84129e-06
3.27386e-07
3.88666e-08
1.21746e-07
7.39121e-08
2.8906e-08
2.61736e-08
3.2914e-08
3.30196e-08
2.78522e-08
2.25753e-08
1.80969e-08
1.44772e-08
1.16315e-08
9.41127e-09
7.67037e-09
6.29206e-09
5.18936e-09
4.29889e-09
3.57428e-09
2.98113e-09
2.49288e-09
2.08966e-09
1.75435e-09
1.47697e-09
1.24177e-09
1.05214e-09
8.80422e-10
7.56843e-10
6.24542e-10
5.48176e-10
4.46291e-10
3.9905e-10
3.17798e-10
2.97114e-10
2.24483e-10
1.71068e-07
3.4571e-07
2.6915e-09
5.53358e-06
5.1195e-06
2.33804e-08
1.28342e-07
6.09434e-08
4.56896e-08
9.304e-08
7.73237e-08
4.41515e-08
3.08879e-08
2.5974e-08
2.16719e-08
1.74414e-08
1.39479e-08
1.12255e-08
9.11509e-09
7.46102e-09
6.14627e-09
5.08836e-09
4.22897e-09
3.52577e-09
2.94732e-09
2.46912e-09
2.07277e-09
1.74202e-09
1.46789e-09
1.23448e-09
1.04672e-09
8.75156e-10
7.52657e-10
6.20365e-10
5.43145e-10
4.42687e-10
3.93047e-10
3.12744e-10
2.90301e-10
2.17833e-10
1.32088e-06
4.00979e-07
4.19457e-08
4.21034e-06
3.81797e-06
1.90254e-08
8.88898e-08
1.05847e-07
3.90469e-08
2.43209e-08
4.60588e-08
6.99143e-08
5.89153e-08
3.79936e-08
2.4756e-08
1.75879e-08
1.34407e-08
1.07883e-08
8.8982e-09
7.41851e-09
6.20265e-09
5.18933e-09
4.3439e-09
3.63945e-09
3.05287e-09
2.5639e-09
2.1563e-09
1.81462e-09
1.53074e-09
1.28786e-09
1.09294e-09
9.13036e-10
7.85743e-10
6.46866e-10
5.64922e-10
4.61125e-10
4.06297e-10
3.23191e-10
2.97633e-10
2.21742e-10
1.82846e-06
1.78481e-07
3.95752e-08
3.4753e-07
4.57554e-08
1.11918e-07
5.90876e-10
1.31363e-08
2.66238e-08
8.43816e-08
8.02916e-08
5.24347e-08
4.5979e-08
4.19795e-08
3.30813e-08
2.3824e-08
1.69309e-08
1.23835e-08
9.47729e-09
7.55203e-09
6.17679e-09
5.12303e-09
4.27882e-09
3.58662e-09
3.01286e-09
2.53443e-09
2.1348e-09
1.79881e-09
1.51911e-09
1.27866e-09
1.08618e-09
9.06696e-10
7.80886e-10
6.42127e-10
5.59391e-10
4.57379e-10
3.99868e-10
3.18057e-10
2.90507e-10
2.14756e-10
2.12478e-07
9.07351e-07
1.8281e-07
1.51251e-07
1.92435e-07
8.0218e-08
8.55928e-08
1.98336e-07
1.40696e-08
1.49641e-06
1.17828e-06
5.32221e-07
2.11675e-09
7.82713e-09
1.55031e-08
1.44927e-08
1.17716e-08
9.53192e-09
7.98276e-09
6.7998e-09
5.79613e-09
4.92009e-09
4.16189e-09
3.51391e-09
2.96491e-09
2.5015e-09
2.11158e-09
1.78198e-09
1.5068e-09
1.26904e-09
1.07913e-09
9.00266e-10
7.75979e-10
6.37443e-10
5.54081e-10
4.53817e-10
3.93888e-10
3.13334e-10
2.83947e-10
2.08218e-10
9.92885e-08
5.18382e-07
1.32215e-07
1.90692e-07
9.32337e-08
6.18393e-08
7.24515e-08
1.83277e-07
2.08669e-08
4.19223e-09
6.55612e-08
5.33999e-08
3.40015e-08
2.84701e-08
2.431e-08
1.885e-08
1.38246e-08
1.03967e-08
8.23959e-09
6.80104e-09
5.71923e-09
4.83435e-09
4.08877e-09
3.45721e-09
2.92265e-09
2.4705e-09
2.08893e-09
1.76529e-09
1.49451e-09
1.25953e-09
1.07218e-09
8.94102e-10
7.71307e-10
6.33113e-10
5.49342e-10
4.50674e-10
3.8871e-10
3.09305e-10
2.78328e-10
2.02535e-10
9.30018e-08
4.4811e-08
4.12079e-08
1.16997e-07
5.05479e-08
1.24803e-07
3.36361e-07
8.65436e-08
1.27637e-07
2.58529e-09
7.15227e-08
9.14483e-08
6.96951e-08
4.76955e-08
3.2877e-08
2.27863e-08
1.57855e-08
1.11867e-08
8.42081e-09
6.75605e-09
5.62141e-09
4.74114e-09
4.01369e-09
3.40025e-09
2.88049e-09
2.4396e-09
2.06632e-09
1.74867e-09
1.4823e-09
1.25022e-09
1.06536e-09
8.88288e-10
7.66942e-10
6.29236e-10
5.45326e-10
4.48008e-10
3.84543e-10
3.06118e-10
2.7393e-10
1.98048e-10
4.53586e-08
3.35189e-08
4.89775e-08
8.93067e-08
2.89924e-08
8.05527e-08
1.95745e-08
8.40367e-08
3.61567e-08
7.54741e-07
4.44937e-07
8.28763e-08
4.2298e-08
2.13846e-08
3.22054e-08
2.08278e-08
1.29256e-08
9.17699e-09
7.36146e-09
6.24868e-09
5.36697e-09
4.59778e-09
3.92348e-09
3.33924e-09
2.83761e-09
2.40887e-09
2.04406e-09
1.73241e-09
1.47041e-09
1.24129e-09
1.05884e-09
8.83007e-10
7.6303e-10
6.25954e-10
5.42195e-10
4.45915e-10
3.81583e-10
3.03926e-10
2.70999e-10
1.95096e-10
4.93042e-08
4.32712e-08
3.64029e-08
5.62477e-08
6.75771e-08
3.36384e-08
3.05218e-08
7.75615e-08
2.13781e-08
5.40726e-09
2.65472e-08
5.14367e-08
4.90694e-08
3.86348e-08
2.84443e-08
2.01617e-08
1.41058e-08
1.0181e-08
7.84719e-09
6.39794e-09
5.36654e-09
4.54919e-09
3.86866e-09
3.29185e-09
2.80029e-09
2.38064e-09
2.02308e-09
1.71694e-09
1.45906e-09
1.23293e-09
1.05274e-09
8.78376e-10
7.59659e-10
6.23344e-10
5.40043e-10
4.44445e-10
3.79951e-10
3.02814e-10
2.69683e-10
1.93913e-10
3.00223e-08
2.41284e-08
3.25513e-08
4.25267e-08
3.77524e-08
5.92033e-08
6.90163e-08
5.09907e-08
1.8265e-09
3.95881e-08
5.33361e-08
4.85062e-08
3.93024e-08
2.98901e-08
2.13743e-08
1.46188e-08
1.03836e-08
8.17988e-09
6.92065e-09
5.97405e-09
5.15281e-09
4.42624e-09
3.7898e-09
3.2377e-09
2.76175e-09
2.35278e-09
2.00281e-09
1.7022e-09
1.44833e-09
1.22522e-09
1.04716e-09
8.74472e-10
7.56883e-10
6.2145e-10
5.3891e-10
4.43625e-10
3.79688e-10
3.02811e-10
2.70028e-10
1.9457e-10
3.41965e-08
3.04662e-08
2.34146e-08
3.06708e-08
3.69663e-08
2.46057e-08
3.20962e-08
4.7197e-08
4.22033e-08
3.13146e-08
3.4012e-08
3.31422e-08
2.79497e-08
2.30033e-08
1.79631e-08
1.35799e-08
1.0444e-08
8.40701e-09
7.0175e-09
5.96094e-09
5.09552e-09
4.36259e-09
3.73414e-09
3.19329e-09
2.72778e-09
2.32738e-09
1.98405e-09
1.68855e-09
1.43842e-09
1.21828e-09
1.04215e-09
8.71331e-10
7.54727e-10
6.20278e-10
5.38782e-10
4.43449e-10
3.80758e-10
3.0388e-10
2.7197e-10
1.96953e-10
2.15408e-08
1.98226e-08
2.11865e-08
2.39735e-08
2.95372e-08
3.15113e-08
3.41426e-08
3.33834e-08
2.34749e-08
2.27964e-08
2.78442e-08
2.70036e-08
2.30063e-08
1.82536e-08
1.39886e-08
1.09507e-08
9.03008e-09
7.71417e-09
6.66416e-09
5.76026e-09
4.9688e-09
4.27633e-09
3.67279e-09
3.14871e-09
2.69512e-09
2.30345e-09
1.96657e-09
1.67596e-09
1.42936e-09
1.21214e-09
1.03776e-09
8.6895e-10
7.53186e-10
6.19803e-10
5.39594e-10
4.43886e-10
3.8305e-10
3.05929e-10
2.75343e-10
2.00797e-10
2.35194e-08
2.07411e-08
1.77636e-08
1.90738e-08
2.15828e-08
2.03197e-08
2.04643e-08
2.45109e-08
2.52506e-08
2.14917e-08
1.84221e-08
1.71943e-08
1.54483e-08
1.34868e-08
1.1647e-08
1.00492e-08
8.69702e-09
7.53824e-09
6.53139e-09
5.65139e-09
4.88125e-09
4.20791e-09
3.62045e-09
3.10926e-09
2.6657e-09
2.28174e-09
1.95071e-09
1.66461e-09
1.42125e-09
1.20684e-09
1.034e-09
8.67296e-10
7.52229e-10
6.19965e-10
5.41236e-10
4.44874e-10
3.86391e-10
3.08815e-10
2.79909e-10
2.05758e-10
1.57387e-08
1.4321e-08
1.44889e-08
1.59077e-08
1.89966e-08
2.04187e-08
1.93615e-08
1.932e-08
1.79904e-08
1.68934e-08
1.64389e-08
1.57131e-08
1.43183e-08
1.26069e-08
1.09836e-08
9.57997e-09
8.36823e-09
7.305e-09
6.36403e-09
5.52993e-09
4.79219e-09
4.14214e-09
3.5717e-09
3.07312e-09
2.63901e-09
2.26217e-09
1.93648e-09
1.65452e-09
1.4141e-09
1.20236e-09
1.03088e-09
8.66304e-10
7.51803e-10
6.20678e-10
5.43558e-10
4.46333e-10
3.90558e-10
3.12364e-10
2.85383e-10
2.11476e-10
1.54259e-08
1.37272e-08
1.2768e-08
1.26856e-08
1.36734e-08
1.43778e-08
1.52742e-08
1.57935e-08
1.59203e-08
1.569e-08
1.49269e-08
1.38539e-08
1.26535e-08
1.14415e-08
1.02663e-08
9.14098e-09
8.08319e-09
7.10818e-09
6.22243e-09
5.42583e-09
4.71492e-09
4.08457e-09
3.52882e-09
3.04127e-09
2.61547e-09
2.24495e-09
1.92401e-09
1.64576e-09
1.40796e-09
1.19869e-09
1.02837e-09
8.65888e-10
7.51834e-10
6.21832e-10
5.46383e-10
4.48163e-10
3.95302e-10
3.16381e-10
2.91458e-10
2.17624e-10
1.13478e-08
1.01259e-08
9.87134e-09
1.04649e-08
1.19277e-08
1.30218e-08
1.34621e-08
1.39322e-08
1.39641e-08
1.37844e-08
1.34176e-08
1.27829e-08
1.19063e-08
1.09026e-08
9.8633e-09
8.83833e-09
7.85802e-09
6.94169e-09
6.09948e-09
5.3349e-09
4.64752e-09
4.03453e-09
3.49166e-09
3.01375e-09
2.59519e-09
2.23016e-09
1.91334e-09
1.63833e-09
1.40281e-09
1.19577e-09
1.02643e-09
8.65931e-10
7.52226e-10
6.23293e-10
5.49511e-10
4.5025e-10
4.00351e-10
3.20661e-10
2.9783e-10
2.23917e-10
9.90691e-09
8.7651e-09
8.34684e-09
8.24233e-09
9.04364e-09
1.01206e-08
1.11489e-08
1.20803e-08
1.24476e-08
1.2547e-08
1.24013e-08
1.19554e-08
1.12546e-08
1.04057e-08
9.49389e-09
8.56817e-09
7.66168e-09
6.79876e-09
5.99484e-09
5.25783e-09
4.59046e-09
3.99216e-09
3.46017e-09
2.99039e-09
2.57793e-09
2.21754e-09
1.90421e-09
1.63199e-09
1.3984e-09
1.19334e-09
1.0248e-09
8.66111e-10
7.52675e-10
6.24741e-10
5.52556e-10
4.52286e-10
4.05281e-10
3.24838e-10
3.0408e-10
2.29957e-10
7.84665e-09
6.81863e-09
6.37373e-09
6.45449e-09
7.45355e-09
8.66539e-09
9.73897e-09
1.07665e-08
1.13378e-08
1.15909e-08
1.15822e-08
1.12863e-08
1.07336e-08
1.00106e-08
9.19679e-09
8.34571e-09
7.49536e-09
6.67406e-09
5.90072e-09
5.18616e-09
4.53537e-09
3.9494e-09
3.42668e-09
2.96392e-09
2.55682e-09
2.20057e-09
1.89039e-09
1.62077e-09
1.38896e-09
1.18589e-09
1.01794e-09
8.61381e-10
7.47766e-10
6.21334e-10
5.50531e-10
4.49067e-10
4.0567e-10
3.23832e-10
3.06054e-10
2.30133e-10
6.62166e-09
5.63082e-09
5.09048e-09
5.12368e-09
6.14792e-09
7.45755e-09
8.64805e-09
9.75747e-09
1.04623e-08
1.08127e-08
1.0873e-08
1.06474e-08
1.01706e-08
9.51897e-09
8.76689e-09
7.96764e-09
7.16002e-09
6.37312e-09
5.6269e-09
4.93334e-09
4.29846e-09
3.72413e-09
3.20934e-09
2.75125e-09
2.34585e-09
1.98861e-09
1.67468e-09
1.39937e-09
1.15813e-09
9.46653e-10
7.62137e-10
5.98609e-10
4.63394e-10
3.30608e-10
2.52426e-10
1.40365e-10
1.139e-10
4.38348e-11
4.2449e-11
8.37659e-12
2.7646e-09
2.02448e-09
1.56249e-09
1.37281e-09
1.60857e-09
2.17594e-09
2.79262e-09
3.32721e-09
3.63799e-09
3.71401e-09
3.57303e-09
3.23463e-09
2.76163e-09
2.23448e-09
1.71528e-09
1.24323e-09
8.43316e-10
5.29084e-10
3.02287e-10
1.54028e-10
6.79506e-11
2.47727e-11
6.84743e-12
1.17532e-12
6.33724e-14
5.94322e-15
1.20556e-13
3.59398e-13
5.942e-13
6.76316e-13
7.31654e-13
5.56062e-13
5.42382e-13
3.32231e-13
2.59203e-13
1.87533e-13
9.37156e-14
6.59497e-14
3.21292e-14
1.72613e-14
2.45624e-11
1.41343e-11
8.47905e-12
5.11579e-12
4.13908e-12
3.60499e-12
1.84547e-12
5.60599e-13
1.439e-13
2.98595e-14
1.74976e-15
4.72344e-16
1.39342e-14
4.88926e-14
9.17944e-14
1.26926e-13
1.45572e-13
1.47009e-13
1.35548e-13
1.16776e-13
9.54255e-14
7.4728e-14
5.64907e-14
4.14357e-14
2.96139e-14
2.06763e-14
1.41659e-14
9.49229e-15
6.34228e-15
4.02812e-15
2.74934e-15
1.54677e-15
1.16527e-15
5.67641e-16
4.04401e-16
2.39826e-16
1.08523e-16
7.21215e-17
2.83289e-17
1.36008e-17
7.45453e-15
2.75168e-15
3.33131e-16
3.35367e-16
5.86709e-17
2.05721e-16
6.8016e-16
1.49781e-15
2.03559e-15
1.80312e-15
1.4962e-15
1.24845e-15
1.00208e-15
7.45644e-16
5.16309e-16
3.38192e-16
2.12472e-16
1.29571e-16
7.75137e-17
4.58728e-17
2.70215e-17
1.59023e-17
9.36912e-18
5.52094e-18
3.25656e-18
1.91183e-18
1.12606e-18
6.52487e-19
3.89349e-19
2.13448e-19
1.42248e-19
5.86576e-20
6.06326e-20
1.20103e-20
1.81123e-20
5.9253e-21
3.68571e-22
1.07786e-20
2.77406e-21
3.2751e-20
)
;

boundaryField
{
    inlet
    {
        type            calculated;
        value           nonuniform List<scalar> 
20
(
1.07767e-34
6.48087e-33
3.70106e-33
1.32339e-32
1.51174e-32
1.62819e-32
1.65383e-32
1.66862e-32
1.67466e-32
1.67746e-32
1.67805e-32
1.67634e-32
1.67259e-32
1.66022e-32
1.63743e-32
1.52795e-32
1.33999e-32
3.7675e-33
6.45419e-33
1.07441e-34
)
;
    }
    outlet
    {
        type            calculated;
        value           nonuniform List<scalar> 
27
(
6.02941e-34
3.80159e-34
1.95948e-34
7.95899e-35
2.27434e-35
2.98312e-36
1.01547e-39
1.85168e-36
1.73786e-35
6.44191e-35
1.62855e-34
3.2287e-34
5.26776e-34
7.33187e-34
9.08936e-34
1.03425e-33
8.83809e-34
5.07893e-36
2.58114e-38
1.50242e-40
1.28716e-40
2.12346e-38
3.68138e-36
5.96707e-34
1.11471e-33
9.78099e-34
8.10839e-34
)
;
    }
    lowerWall
    {
        type            fixedValue;
        value           uniform 0;
    }
    upperWall
    {
        type            fixedValue;
        value           uniform 0;
    }
    defaultFaces
    {
        type            empty;
    }
}


// ************************************************************************* //
