/*--------------------------------*- C++ -*----------------------------------*\
| =========                 |                                                 |
| \\      /  F ield         | OpenFOAM: The Open Source CFD Toolbox           |
|  \\    /   O peration     | Version:  2112                                  |
|   \\  /    A nd           | Website:  www.openfoam.com                      |
|    \\/     M anipulation  |                                                 |
\*---------------------------------------------------------------------------*/
FoamFile
{
    version     2.0;
    format      ascii;
    arch        "LSB;label=32;scalar=64";
    class       volScalarField;
    location    "0.09";
    object      p;
}
// * * * * * * * * * * * * * * * * * * * * * * * * * * * * * * * * * * * * * //

dimensions      [0 2 -2 0 0 0 0];

internalField   nonuniform List<scalar> 
1880
(
0.00382626
0.00368844
0.00358445
0.00353798
0.00352891
0.00350469
0.00345963
0.00343005
0.00342067
0.00341245
0.00340042
0.00339248
0.00339147
0.00339488
0.00340118
0.00341138
0.00342636
0.00344798
0.00347568
0.00351442
0.00355979
0.00362532
0.00369549
0.003803
0.00391259
0.00408862
0.00427583
0.00456647
0.00489708
0.005371
0.00364694
0.00361802
0.00356018
0.00351446
0.00351103
0.00349534
0.00345176
0.00342209
0.00341615
0.00341082
0.00339862
0.00338978
0.00338845
0.00339155
0.00339696
0.00340606
0.00341961
0.00343974
0.0034652
0.00350139
0.00354332
0.00360338
0.00366863
0.00376333
0.00386483
0.00400955
0.00417063
0.00436998
0.00458752
0.00475208
0.00361475
0.00359919
0.00355079
0.00350699
0.00350506
0.00349225
0.00345116
0.00342371
0.00341941
0.00341385
0.00339965
0.00338833
0.00338481
0.0033858
0.00338903
0.00339566
0.00340658
0.00342317
0.00344508
0.00347505
0.00351186
0.00356007
0.00361774
0.00368958
0.00377636
0.00387472
0.00399469
0.00410986
0.00424238
0.0043065
0.00355739
0.00355343
0.00351985
0.00348428
0.00348651
0.00347777
0.00344004
0.00341453
0.00341162
0.00340701
0.00339284
0.00338075
0.00337596
0.00337531
0.00337637
0.00338034
0.00338782
0.00340043
0.00341694
0.00344054
0.00346873
0.00350586
0.00354972
0.00360112
0.00366316
0.00372629
0.0037984
0.00385678
0.00390578
0.00388283
0.00352965
0.0035305
0.00350333
0.00347201
0.00347655
0.00346969
0.00343361
0.00340912
0.00340656
0.00340159
0.00338628
0.00337245
0.00336556
0.00336253
0.00336074
0.00336132
0.00336471
0.00337233
0.00338274
0.0033985
0.00341743
0.00344145
0.0034711
0.00349961
0.00353941
0.00356487
0.00360457
0.0036069
0.00360468
0.00353747
0.0035036
0.0035061
0.00348243
0.00345468
0.00346169
0.00345672
0.00342231
0.00339898
0.00339689
0.00339184
0.00337589
0.00336082
0.0033521
0.00334669
0.00334194
0.00333891
0.0033378
0.00334004
0.0033437
0.00335134
0.00336007
0.00337159
0.00338565
0.00339524
0.00341105
0.00341107
0.00341231
0.00338739
0.00333259
0.00324279
0.00348441
0.00348827
0.00346698
0.00344163
0.00345038
0.00344655
0.00341295
0.00339
0.00338772
0.00338198
0.00336487
0.00334812
0.00333723
0.00332913
0.00332112
0.00331416
0.0033083
0.00330482
0.00330159
0.00330089
0.00329961
0.00329891
0.00329859
0.00329045
0.00328668
0.00326201
0.00323837
0.00318401
0.00310268
0.00299386
0.00346932
0.00347378
0.00345363
0.00342952
0.0034392
0.00343601
0.00340283
0.00337998
0.00337736
0.00337082
0.00335248
0.00333401
0.0033209
0.00331006
0.00329873
0.00328775
0.00327709
0.00326788
0.00325784
0.00324905
0.00323818
0.00322625
0.00321258
0.00318973
0.00316774
0.0031257
0.0030781
0.00300738
0.00290314
0.00278034
0.00345783
0.00346257
0.00344298
0.00341954
0.00342972
0.00342674
0.00339353
0.00337036
0.00336706
0.00335946
0.00333967
0.00331932
0.00330389
0.00329024
0.00327553
0.00326053
0.00324515
0.00323035
0.00321381
0.00319735
0.00317764
0.00315556
0.00313014
0.00309455
0.00305774
0.00300065
0.00293644
0.00285071
0.00273354
0.00260164
0.00344967
0.00345448
0.00343503
0.00341169
0.00342182
0.00341862
0.00338497
0.00336113
0.00335689
0.00334805
0.00332668
0.00330437
0.00328659
0.00327013
0.00325212
0.00323322
0.00321334
0.00319322
0.00317063
0.0031471
0.00311942
0.00308839
0.00305272
0.00300667
0.00295724
0.00288898
0.00281125
0.00271536
0.00258974
0.00245097
0.00344477
0.00344946
0.00342976
0.00340605
0.00341571
0.00341188
0.00337745
0.0033526
0.00334717
0.00333694
0.00331388
0.00328957
0.00326945
0.00325025
0.00322908
0.00320648
0.00318238
0.00315733
0.00312924
0.00309934
0.00306464
0.00302581
0.00298143
0.00292675
0.00286716
0.00279011
0.00270263
0.00259905
0.00246863
0.00232657
0.00344319
0.00344759
0.00342732
0.00340282
0.00341158
0.00340677
0.00337121
0.00334507
0.00333824
0.00332646
0.00330163
0.00327527
0.00325287
0.00323107
0.00320692
0.00318088
0.00315291
0.00312339
0.00309039
0.00305486
0.00301408
0.00296861
0.00291691
0.00285529
0.0027875
0.00270393
0.00260939
0.00250041
0.0023678
0.00222363
0.00344524
0.00344909
0.00342772
0.00340177
0.00340904
0.0034028
0.00336573
0.00333813
0.00332977
0.00331642
0.00328987
0.00326159
0.00323707
0.00321287
0.00318602
0.00315687
0.00312545
0.00309197
0.00305469
0.00301425
0.00296831
0.00291725
0.00285955
0.00279239
0.00271819
0.00262986
0.00253038
0.00241776
0.00228438
0.00213992
0.0034516
0.00345477
0.00343205
0.00340432
0.00340982
0.00340188
0.00336298
0.00333336
0.00332314
0.00330796
0.00327944
0.00324917
0.00322259
0.00319615
0.00316683
0.00313492
0.00310047
0.00306353
0.00302258
0.00297797
0.00292773
0.00287207
0.00280952
0.00273801
0.00265891
0.00256716
0.00246437
0.00234947
0.0022165
0.00207245
0.00346236
0.00346386
0.00343822
0.0034074
0.0034103
0.00340012
0.003359
0.00332734
0.00331539
0.00329867
0.00326879
0.0032371
0.00320896
0.00318075
0.00314942
0.0031152
0.00307822
0.00303839
0.00299439
0.00294634
0.00289259
0.00283319
0.00276683
0.00269197
0.00260921
0.00251508
0.00241019
0.00229405
0.0021621
0.00201924
0.00348191
0.00348166
0.00345222
0.00341732
0.00341705
0.00340409
0.00336021
0.00332606
0.00331194
0.00329311
0.00326117
0.00322748
0.00319754
0.0031676
0.00313446
0.00309825
0.00305914
0.00301692
0.00297042
0.00291958
0.00286304
0.00280072
0.00273141
0.00265404
0.00256862
0.00247288
0.00236677
0.00225011
0.00211957
0.00197825
0.00350293
0.00349773
0.00346158
0.00342194
0.00341869
0.003403
0.00335635
0.00331976
0.00330369
0.00328355
0.00325087
0.00321639
0.00318635
0.00315565
0.00312141
0.00308385
0.00304321
0.0029992
0.0029508
0.00289782
0.00283915
0.00277462
0.00270312
0.00262395
0.00253667
0.00243992
0.00233318
0.00221646
0.00208743
0.00194782
0.00355636
0.00353936
0.00348806
0.00343976
0.00343184
0.00341142
0.00336066
0.00332129
0.0033029
0.00328063
0.00324636
0.00321119
0.00317912
0.00314694
0.00311155
0.00307285
0.00303099
0.0029856
0.00293578
0.00288124
0.00282101
0.00275489
0.00268183
0.00260145
0.00251289
0.00241564
0.00230865
0.00219219
0.00206459
0.00192655
0.0035847
0.00355431
0.0034934
0.00344284
0.00343293
0.00340901
0.00335496
0.00331251
0.0032916
0.00326858
0.00323523
0.00320119
0.0031702
0.00313876
0.00310345
0.00306448
0.00302211
0.00297598
0.00292531
0.0028698
0.00280858
0.0027415
0.00266741
0.00258636
0.00249693
0.00239949
0.00229253
0.00217649
0.00205034
0.00191366
0.0037626
0.00362316
0.00351588
0.00346435
0.0034485
0.00341563
0.00335972
0.0033171
0.0032925
0.00326634
0.00323284
0.0031992
0.00316799
0.00313547
0.00309973
0.00306052
0.00301781
0.00297125
0.00292016
0.00286415
0.00280249
0.00273491
0.00266042
0.00257898
0.00248928
0.00239176
0.00228497
0.00216944
0.00204457
0.00191019
0.00573517
0.00459242
0.00394401
0.00341157
0.00233835
0.00177939
0.000900584
-0.000865176
-0.000964317
-0.0059903
0.0048882
0.00382086
0.00335951
0.00285431
0.00169053
0.00141243
3.04886e-05
-0.00135267
-0.00245823
-0.00505486
0.00433663
0.00372127
0.00322001
0.00272279
0.00186264
0.00125361
0.000181335
-0.0012011
-0.00221635
-0.00366638
0.00381589
0.00326966
0.00274213
0.00223248
0.00147149
0.000827578
-2.12948e-05
-0.00108886
-0.00206269
-0.00255956
0.00343483
0.00303097
0.00258199
0.00209699
0.00147857
0.00082157
7.00583e-05
-0.000848387
-0.00158144
-0.00205422
0.0031055
0.00274453
0.00227752
0.00179437
0.00126539
0.0006143
-2.69446e-05
-0.000753967
-0.00138761
-0.00174851
0.00284815
0.00252681
0.00212378
0.00169583
0.00121037
0.000647503
7.77988e-05
-0.000527413
-0.00102434
-0.00138969
0.00262087
0.00232681
0.00195168
0.00152888
0.0011017
0.000591395
8.0421e-05
-0.000418825
-0.00084334
-0.0011587
0.00244052
0.00217431
0.00183049
0.00146273
0.00106366
0.000615759
0.000180349
-0.000241287
-0.000600165
-0.000889292
0.00228803
0.00203733
0.00173064
0.00138018
0.00101584
0.000621698
0.000235807
-0.000129453
-0.000444979
-0.000700761
0.0021634
0.00193507
0.00165215
0.00133809
0.00100238
0.000652964
0.000318721
1.89604e-06
-0.0002776
-0.000508449
0.00206226
0.0018476
0.0015916
0.00130064
0.000991645
0.000679811
0.000383618
0.00010017
-0.000152377
-0.000362452
0.00198003
0.00178063
0.0015445
0.00127889
0.000995857
0.000715231
0.000449579
0.000196158
-3.46033e-05
-0.000228927
0.00191495
0.00172646
0.00150863
0.0012639
0.0010038
0.000747759
0.000506024
0.000273698
6.04998e-05
-0.000121286
0.00186393
0.00168485
0.00148169
0.00125578
0.00101638
0.000780812
0.000557138
0.000342713
0.000143233
-2.93047e-05
0.00182535
0.00165334
0.00146212
0.00125204
0.00103038
0.000810853
0.000601184
0.000399564
0.000211123
4.56581e-05
0.00179725
0.0016308
0.00144882
0.00125161
0.00104447
0.000837658
0.0006384
0.000446813
0.000266748
0.000106488
0.00177838
0.00161639
0.0014416
0.00125448
0.0010587
0.00086112
0.000669496
0.000484866
0.000310931
0.000154055
0.00176691
0.00160822
0.00143876
0.0012587
0.00107119
0.000880461
0.000693811
0.00051404
0.000343996
0.000188917
0.00176644
0.00161128
0.00144532
0.00126912
0.00108535
0.000898143
0.000713974
0.000536375
0.000368415
0.000213369
-0.00609949
-0.00641066
-0.00798794
-0.0090764
-0.00700366
-0.00411206
-0.00173604
-0.000222155
0.000619579
0.00104078
0.0012315
0.00128229
0.00125594
0.00119032
0.00110757
0.00102023
0.000934883
0.000854664
0.000780752
0.000713287
0.000651902
0.00059601
0.00054497
0.000498156
0.000454994
0.000414969
0.000377628
0.000342575
0.000309475
0.000278034
0.000248013
0.000219174
0.000191355
0.000164351
0.000138034
0.000112272
8.69096e-05
6.18927e-05
3.70642e-05
1.23644e-05
-0.00656745
-0.00658637
-0.00870507
-0.0102283
-0.00808961
-0.00462567
-0.00204463
-0.000397693
0.000498343
0.000956378
0.00117225
0.00123996
0.00122436
0.00116565
0.00108774
0.00100407
0.000921648
0.000843799
0.000771817
0.000705924
0.000645817
0.000590962
0.000540767
0.000494646
0.000452056
0.000412504
0.000375554
0.000340828
0.000308003
0.000276795
0.00024697
0.000218302
0.000190624
0.00016375
0.000137538
0.000111876
8.66009e-05
6.16646e-05
3.69224e-05
1.23103e-05
-0.00670666
-0.00721871
-0.0103587
-0.0132435
-0.0107631
-0.0059565
-0.00271803
-0.000787004
0.000242398
0.00077636
0.00104466
0.00114923
0.00115801
0.00111548
0.00104879
0.00097331
0.000897101
0.000824068
0.000755854
0.000692927
0.000635169
0.000582189
0.0005335
0.000488601
0.000447008
0.000408275
0.000372003
0.000337842
0.00030549
0.000274682
0.000245195
0.000216819
0.000189388
0.000162733
0.00013671
0.000111215
8.60988e-05
6.13032e-05
3.67044e-05
1.22337e-05
-0.00776719
-0.00810643
-0.0127738
-0.0175604
-0.0149994
-0.0081288
-0.0038425
-0.00140589
-0.000137693
0.000525973
0.000871496
0.00102784
0.00107084
0.00105062
0.000998927
0.000934055
0.000865721
0.000798725
0.000735228
0.000676035
0.000621258
0.000570679
0.000523936
0.000480623
0.000440332
0.000402674
0.000367293
0.000333877
0.000302151
0.000271874
0.000242836
0.000214848
0.000187746
0.000161382
0.000135614
0.000110346
8.5441e-05
6.08383e-05
3.64283e-05
1.21429e-05
-0.00754045
-0.00860414
-0.0147034
-0.0222736
-0.0190113
-0.0103929
-0.00515655
-0.00219183
-0.000620549
0.000221147
0.000668514
0.000885501
0.000966959
0.000972114
0.000937884
0.0008857
0.000826955
0.000767383
0.000709712
0.000655133
0.000604041
0.000556428
0.000512089
0.000470736
0.000432053
0.000395724
0.000361447
0.000328955
0.000298006
0.000268386
0.000239907
0.000212398
0.000185709
0.000159705
0.000134256
0.000109272
8.46298e-05
6.02692e-05
3.60904e-05
1.20296e-05
-0.00730133
-0.00720026
-0.0144711
-0.022935
-0.0203938
-0.0112514
-0.00560259
-0.00258777
-0.000926704
-7.68805e-06
0.000498014
0.000756837
0.000867121
0.000892832
0.000874011
0.000833677
0.000784324
0.000732316
0.000680782
0.000631201
0.000584187
0.000539909
0.000498303
0.000459198
0.000422371
0.000387581
0.00035459
0.000323175
0.000293133
0.000264281
0.000236458
0.000209512
0.00018331
0.000157731
0.000132658
0.000108012
8.36779e-05
5.96028e-05
3.56956e-05
1.1898e-05
-0.00774602
-0.00584809
-0.0129472
-0.0215842
-0.0194832
-0.0110679
-0.0055095
-0.00259337
-0.000951605
-6.13606e-05
0.000430591
0.000680674
0.00078607
0.000814947
0.000805205
0.00077565
0.000736352
0.000692852
0.000648273
0.000604329
0.00056189
0.00052134
0.000482785
0.00044619
0.000411438
0.000378373
0.000346823
0.000316619
0.0002876
0.000259618
0.000232536
0.000206228
0.000180579
0.000155485
0.000130841
0.000106578
8.25959e-05
5.88463e-05
3.52482e-05
1.17489e-05
-0.00739689
-0.00388215
-0.0101167
-0.017941
-0.0162852
-0.00965939
-0.00499744
-0.0025419
-0.00096697
-6.48715e-05
0.000400143
0.000645045
0.000741226
0.000762832
0.00075221
0.000725459
0.000690938
0.000653068
0.00061415
0.000575401
0.000537495
0.000500803
0.000465499
0.000431628
0.000399156
0.000368
0.000338056
0.000309207
0.000281336
0.000254331
0.000228087
0.0002025
0.000177478
0.000152932
0.000128775
0.00010495
8.13668e-05
5.79873e-05
3.47405e-05
1.15797e-05
-0.0060923
-0.00505661
-0.00765838
-0.012543
-0.01148
-0.00724915
-0.00411904
-0.00228513
-0.00124557
-0.000522521
0.000145812
0.000527675
0.000638095
0.000670092
0.000667787
0.000653436
0.000631891
0.000605057
0.000574844
0.000542912
0.00051044
0.000478155
0.000446467
0.000415588
0.000385607
0.000356539
0.000328351
0.000300987
0.000274379
0.000248452
0.000223133
0.000198346
0.000174019
0.000150084
0.00012647
0.000103132
7.99951e-05
5.70286e-05
3.4174e-05
1.1391e-05
-0.00480329
-0.00436976
-0.00537164
-0.00781999
-0.00780717
-0.00561648
-0.00346717
-0.00193593
-0.00132453
-0.00099471
-0.000496347
2.1984e-05
0.000377649
0.000544112
0.000602455
0.000606864
0.000589886
0.000565683
0.000539075
0.000511454
0.000483304
0.000454967
0.000426735
0.000398824
0.000371371
0.000344449
0.000318084
0.000292271
0.000266987
0.000242195
0.000217855
0.000193914
0.000170327
0.000147042
0.000124006
0.000101189
7.85285e-05
5.60034e-05
3.35681e-05
1.11892e-05
-0.00344644
-0.00366433
-0.00415586
-0.0056629
-0.00549763
-0.00412739
-0.00244245
-0.00133379
-0.00120754
-0.000986198
-0.000384463
0.000121848
0.000373029
0.00046278
0.000496685
0.000511617
0.00051502
0.000508742
0.00049492
0.000476054
0.00045418
0.000430632
0.000406221
0.000381448
0.000356613
0.000331898
0.000307404
0.000283187
0.000259269
0.000235652
0.000212327
0.000189268
0.000166452
0.000143847
0.000121418
9.91469e-05
7.69861e-05
5.49249e-05
3.29308e-05
1.0977e-05
-0.0027965
-0.00306441
-0.00324316
-0.00396738
-0.00402282
-0.00332376
-0.00236813
-0.00162697
-0.00128226
-0.000843519
-0.000103509
0.000355236
0.000486666
0.000508013
0.00050833
0.000501527
0.000490369
0.000476964
0.000462022
0.000445366
0.000426912
0.000406923
0.000385809
0.000363949
0.000341641
0.000319102
0.000296477
0.000273867
0.000251334
0.000228913
0.000206625
0.00018447
0.000162446
0.000140542
0.000118738
9.70313e-05
7.53878e-05
5.3807e-05
3.22701e-05
1.0757e-05
-0.00222026
-0.00248061
-0.00266379
-0.00305849
-0.00303607
-0.00250415
-0.0017821
-0.00123284
-0.000977412
-0.000735293
-0.000468271
-0.000176741
6.31556e-05
0.00022073
0.000317054
0.000374067
0.000404868
0.000417523
0.0004179
0.000410462
0.00039815
0.000382714
0.000365222
0.000346361
0.000326589
0.000306213
0.000285447
0.000264438
0.000243288
0.000222068
0.000200824
0.000179582
0.000158362
0.000137169
0.000116002
9.48693e-05
7.37538e-05
5.2664e-05
3.15944e-05
1.0532e-05
-0.00175123
-0.0019636
-0.00208438
-0.00233394
-0.00237849
-0.00207001
-0.00169539
-0.00130322
-0.000873703
-0.000492398
-0.000138946
0.000105777
0.000241168
0.00031427
0.000354241
0.000374985
0.000384745
0.000388145
0.00038682
0.000381238
0.000371971
0.000359754
0.000345281
0.000329125
0.00031173
0.000293428
0.000274465
0.000255023
0.000235237
0.000215204
0.000194999
0.000174667
0.00015425
0.00013377
0.000113242
9.26881e-05
7.21046e-05
5.15099e-05
3.09121e-05
1.03048e-05
-0.00141393
-0.00161349
-0.00174457
-0.00188613
-0.00188958
-0.00168293
-0.00132681
-0.000949284
-0.000699197
-0.000507656
-0.000324112
-0.000137231
1.90785e-05
0.000137634
0.000224183
0.000283631
0.000320817
0.000341126
0.000349732
0.000350478
0.000345797
0.000337232
0.000325824
0.000312303
0.000297195
0.000280886
0.000263662
0.000245738
0.00022728
0.000208408
0.000189221
0.000169786
0.000150163
0.000130388
0.000110494
9.05144e-05
7.04603e-05
5.0359e-05
3.02316e-05
1.00781e-05
-0.00109725
-0.00124902
-0.00135597
-0.00147344
-0.00149752
-0.00137112
-0.00116867
-0.000935944
-0.000676901
-0.000443051
-0.000216342
-3.39286e-05
9.10308e-05
0.000174247
0.000230309
0.000268413
0.000294431
0.000311325
0.000320643
0.000323741
0.000321878
0.000316121
0.00030733
0.000296176
0.00028318
0.00026874
0.000253165
0.000236692
0.000219509
0.000201759
0.00018356
0.000164997
0.000146147
0.000127063
0.00010779
8.83744e-05
6.88408e-05
4.9225e-05
2.95608e-05
9.85467e-06
-0.000874
-0.00102325
-0.00112732
-0.00119807
-0.00122075
-0.00114325
-0.000964645
-0.000737937
-0.000541168
-0.000383111
-0.000238769
-0.000107712
5.62322e-06
9.73537e-05
0.000168081
0.000219628
0.000254988
0.0002779
0.000291509
0.000298075
0.000299228
0.00029617
0.000289811
0.000280845
0.000269807
0.000257112
0.000243085
0.000227983
0.000212012
0.000195332
0.00017808
0.000160356
0.000142252
0.000123834
0.000105162
8.62933e-05
6.72651e-05
4.81213e-05
2.89078e-05
9.63715e-06
-0.00066343
-0.000783189
-0.000877837
-0.000953222
-0.000977633
-0.000930211
-0.000814184
-0.000666406
-0.000510636
-0.000360148
-0.000220475
-9.32429e-05
1.00675e-05
8.90675e-05
0.000149134
0.00019452
0.000227836
0.000251182
0.000266421
0.000275117
0.000278541
0.00027772
0.000273477
0.000266465
0.000257205
0.000246114
0.000233523
0.000219701
0.000204867
0.000189197
0.000172841
0.000155913
0.000138519
0.000120737
0.00010264
8.4295e-05
6.57514e-05
4.70606e-05
2.82802e-05
9.42804e-06
-0.000506238
-0.000626205
-0.000722352
-0.000776743
-0.00080227
-0.000782081
-0.000696313
-0.000569562
-0.000436409
-0.000313751
-0.000200593
-9.74787e-05
-8.89364e-06
6.40398e-05
0.000122294
0.000167607
0.000201776
0.000226555
0.000243568
0.000254207
0.000259625
0.000260764
0.00025839
0.000253124
0.00024547
0.000235839
0.000224566
0.000211926
0.000198148
0.000183418
0.0001679
0.000151718
0.000134991
0.000117808
0.000100253
8.24022e-05
6.43169e-05
4.60551e-05
2.76849e-05
9.22971e-06
-0.000366184
-0.000473961
-0.000558328
-0.000620794
-0.000652026
-0.000643637
-0.00058462
-0.00048987
-0.000385699
-0.000284551
-0.000188121
-9.79675e-05
-1.82998e-05
4.85517e-05
0.000102994
0.000146377
0.00018006
0.000205342
0.000223469
0.000235563
0.000242596
0.000245389
0.000244634
0.000240906
0.000234685
0.000226369
0.000216291
0.000204728
0.000191917
0.000178053
0.000163307
0.000147814
0.000131705
0.000115077
9.80259e-05
8.06358e-05
6.29776e-05
4.51159e-05
2.71287e-05
9.04433e-06
-0.000254465
-0.000360907
-0.000446249
-0.000503174
-0.000536414
-0.000539294
-0.000500048
-0.000427217
-0.00034219
-0.000257066
-0.000174489
-9.61454e-05
-2.53962e-05
3.55485e-05
8.64841e-05
0.000128092
0.000161227
0.000186804
0.000205772
0.000219035
0.000227409
0.000231609
0.000232253
0.000229872
0.000224917
0.000217771
0.000208763
0.00019817
0.000186232
0.000173151
0.000159107
0.000144242
0.000128696
0.000112575
9.59841e-05
7.9015e-05
6.17479e-05
4.42531e-05
2.66175e-05
8.87388e-06
-0.000160633
-0.000264814
-0.000346864
-0.000405226
-0.000441804
-0.00045262
-0.00042798
-0.000372971
-0.000304464
-0.000233295
-0.000162558
-9.40445e-05
-3.07389e-05
2.51114e-05
7.28534e-05
0.000112704
0.000145151
0.00017081
0.000190378
0.000204565
0.000214046
0.000219434
0.00022128
0.000220066
0.000216218
0.000210102
0.000202038
0.000192305
0.000181143
0.000168761
0.000155342
0.000141037
0.000125994
0.000110327
9.41487e-05
7.7557e-05
6.0641e-05
4.3476e-05
2.61565e-05
8.72009e-06
-8.48097e-05
-0.000188728
-0.000270955
-0.000329773
-0.000368683
-0.000384942
-0.000370965
-0.000329747
-0.000274359
-0.000214278
-0.000152917
-9.22967e-05
-3.51385e-05
1.63825e-05
6.13474e-05
9.96281e-05
0.000131417
0.000157082
0.000177113
0.000192057
0.000202464
0.000208861
0.000211733
0.000211524
0.000208631
0.000203407
0.000196164
0.000187179
0.000176694
0.00016492
0.000152047
0.000138232
0.000123628
0.000108356
9.2539e-05
7.62767e-05
5.96683e-05
4.27923e-05
2.57502e-05
8.58439e-06
-2.40107e-05
-0.00012874
-0.000211304
-0.000271378
-0.000312204
-0.000332365
-0.00032639
-0.000295971
-0.000251033
-0.000199782
-0.000145869
-9.15266e-05
-3.929e-05
8.73772e-06
5.14516e-05
8.84597e-05
0.000119721
0.000145407
0.000165839
0.00018143
0.000192627
0.000199881
0.000203627
0.000204273
0.000202193
0.000197727
0.000191182
0.000182832
0.000172921
0.000161664
0.000149253
0.000135853
0.00012162
0.000106684
9.11716e-05
7.5187e-05
5.88393e-05
4.22084e-05
2.54021e-05
8.46744e-06
2.29181e-05
-8.32504e-05
-0.000167218
-0.000228722
-0.000270714
-0.000293435
-0.000293415
-0.000271297
-0.000234391
-0.000189887
-0.000141683
-9.21605e-05
-4.36896e-05
1.69506e-06
4.27465e-05
7.88625e-05
0.000109814
0.000135614
0.00015645
0.000172629
0.000184516
0.000192505
0.000196989
0.00019835
0.000196945
0.000193106
0.000187135
0.000179307
0.000169865
0.000159029
0.000146992
0.000133929
0.000119997
0.000105331
9.00641e-05
7.43018e-05
5.81653e-05
4.17305e-05
2.51168e-05
8.37323e-06
5.58639e-05
-5.30667e-05
-0.000138622
-0.000201292
-0.000243956
-0.000268304
-0.000272554
-0.000256543
-0.000225423
-0.000185566
-0.00014118
-9.48571e-05
-4.88638e-05
-5.16431e-06
3.49023e-05
7.058e-05
0.0001015
0.000127557
0.000148841
0.000165579
0.000178081
0.000186699
0.000191799
0.000193744
0.000192884
0.000189545
0.000184028
0.000176608
0.00016753
0.00015702
0.00014527
0.000132467
0.000118759
0.000104301
8.92185e-05
7.36207e-05
5.76459e-05
4.13556e-05
2.48879e-05
8.29199e-06
7.76044e-05
-3.4678e-05
-0.00012315
-0.000187095
-0.000229817
-0.00025472
-0.000261159
-0.000248536
-0.000220918
-0.000184051
-0.000142037
-9.75864e-05
-5.2974e-05
-1.01525e-05
2.94693e-05
6.50268e-05
9.60552e-05
0.000122375
0.000144016
0.000161162
0.000174088
0.000183125
0.000188626
0.000190946
0.00019043
0.000187402
0.000182165
0.000174995
0.000166138
0.000155824
0.000144246
0.000131598
0.000118022
0.000103688
8.87099e-05
7.32102e-05
5.73256e-05
4.11198e-05
2.4739e-05
8.2352e-06
)
;

boundaryField
{
    inlet
    {
        type            zeroGradient;
    }
    outlet
    {
        type            fixedValue;
        value           uniform 0;
    }
    lowerWall
    {
        type            zeroGradient;
    }
    upperWall
    {
        type            zeroGradient;
    }
    defaultFaces
    {
        type            empty;
    }
}


// ************************************************************************* //
