/*--------------------------------*- C++ -*----------------------------------*\
| =========                 |                                                 |
| \\      /  F ield         | OpenFOAM: The Open Source CFD Toolbox           |
|  \\    /   O peration     | Version:  2112                                  |
|   \\  /    A nd           | Website:  www.openfoam.com                      |
|    \\/     M anipulation  |                                                 |
\*---------------------------------------------------------------------------*/
FoamFile
{
    version     2.0;
    format      ascii;
    arch        "LSB;label=32;scalar=64";
    class       volVectorField;
    location    "0.09";
    object      U;
}
// * * * * * * * * * * * * * * * * * * * * * * * * * * * * * * * * * * * * * //

dimensions      [0 1 -1 0 0 0 0];

internalField   nonuniform List<vector> 
1880
(
(0.0992067 0.000642661 0)
(0.0981863 0.00115549 0)
(0.0974565 0.00112009 0)
(0.0963369 0.00126446 0)
(0.0941204 0.00148098 0)
(0.0921673 0.00153161 0)
(0.0907537 0.00141448 0)
(0.0891683 0.00117436 0)
(0.0876103 0.000855517 0)
(0.0865633 0.00055979 0)
(0.0859541 0.000359434 0)
(0.0854978 0.000246121 0)
(0.0850966 0.000185698 0)
(0.0847526 0.000157661 0)
(0.0844405 0.000154857 0)
(0.0841159 0.000162958 0)
(0.083759 0.000191213 0)
(0.0833379 0.000207171 0)
(0.0828731 0.000277497 0)
(0.0822625 0.000271732 0)
(0.0816436 0.000441931 0)
(0.080685 0.000357353 0)
(0.079846 0.00073365 0)
(0.0783225 0.000517535 0)
(0.0769912 0.00122441 0)
(0.0746604 0.000883919 0)
(0.0720653 0.0022546 0)
(0.0681456 0.00177162 0)
(0.0628583 0.00497915 0)
(0.0544471 0.00623747 0)
(0.10021 0.000732811 0)
(0.10011 0.00143102 0)
(0.100711 0.00145356 0)
(0.101392 0.0016205 0)
(0.101066 0.0019006 0)
(0.101008 0.00203181 0)
(0.101504 0.00198734 0)
(0.101613 0.00178904 0)
(0.101266 0.00145038 0)
(0.100968 0.00108071 0)
(0.100801 0.000794582 0)
(0.100588 0.000615566 0)
(0.100302 0.000516925 0)
(0.10001 0.000473336 0)
(0.0997147 0.0004774 0)
(0.0994092 0.000506846 0)
(0.099035 0.00058443 0)
(0.0986698 0.000641456 0)
(0.098114 0.000826895 0)
(0.0977195 0.000841211 0)
(0.0967626 0.00129573 0)
(0.0964711 0.00108532 0)
(0.094704 0.00216817 0)
(0.094716 0.00147222 0)
(0.0916453 0.00357742 0)
(0.0918766 0.00256807 0)
(0.087175 0.00573452 0)
(0.0871937 0.00557534 0)
(0.0803589 0.0103824 0)
(0.0804379 0.0131106 0)
(0.100217 0.000256101 0)
(0.0999888 0.000686188 0)
(0.100544 0.000871789 0)
(0.101279 0.00101643 0)
(0.101031 0.00121149 0)
(0.101086 0.00138125 0)
(0.10174 0.00145332 0)
(0.102014 0.00140682 0)
(0.101806 0.00125948 0)
(0.101613 0.00107323 0)
(0.101518 0.000911454 0)
(0.101347 0.000801359 0)
(0.101083 0.00074373 0)
(0.100807 0.000730867 0)
(0.100534 0.00076132 0)
(0.100253 0.000825561 0)
(0.099919 0.000936429 0)
(0.0995828 0.00106504 0)
(0.09911 0.00127899 0)
(0.0987287 0.00146046 0)
(0.0979621 0.00187525 0)
(0.0976263 0.00204655 0)
(0.096259 0.002948 0)
(0.0961568 0.00289053 0)
(0.0938407 0.00487965 0)
(0.0938796 0.00442596 0)
(0.0909939 0.0079393 0)
(0.0898957 0.00831705 0)
(0.0883365 0.0123712 0)
(0.08415 0.0169833 0)
(0.100229 0.000225972 0)
(0.0998538 0.000648267 0)
(0.100267 0.000886673 0)
(0.100956 0.0010357 0)
(0.100658 0.0012094 0)
(0.10064 0.00138786 0)
(0.101257 0.00150014 0)
(0.101544 0.00151307 0)
(0.101386 0.00143018 0)
(0.101277 0.00129054 0)
(0.101284 0.00114823 0)
(0.101211 0.00104113 0)
(0.10103 0.00098402 0)
(0.100823 0.000976992 0)
(0.100603 0.00102235 0)
(0.100378 0.0011089 0)
(0.10008 0.00125543 0)
(0.0998153 0.00142341 0)
(0.0993637 0.00170251 0)
(0.0991085 0.00193878 0)
(0.0983507 0.00245802 0)
(0.0982206 0.00271395 0)
(0.0969134 0.00373056 0)
(0.0970757 0.00388096 0)
(0.0949817 0.00587099 0)
(0.0955539 0.00583636 0)
(0.0925939 0.00929578 0)
(0.0937305 0.00947656 0)
(0.0900178 0.0147351 0)
(0.0921694 0.0158382 0)
(0.100233 0.000136325 0)
(0.099796 0.000414538 0)
(0.100145 0.000612635 0)
(0.100801 0.00073757 0)
(0.100471 0.000868149 0)
(0.10042 0.00102795 0)
(0.101016 0.00117127 0)
(0.101305 0.001253 0)
(0.101175 0.00126252 0)
(0.101111 0.0012207 0)
(0.101172 0.00116282 0)
(0.101155 0.00112008 0)
(0.101024 0.00111055 0)
(0.100865 0.00114145 0)
(0.100691 0.00121833 0)
(0.100515 0.00133943 0)
(0.100263 0.00151605 0)
(0.10006 0.00173555 0)
(0.0996614 0.0020414 0)
(0.0995051 0.0023729 0)
(0.0988149 0.00288938 0)
(0.0988412 0.00333102 0)
(0.0976765 0.00425751 0)
(0.0979842 0.00475469 0)
(0.0964015 0.00643809 0)
(0.0967006 0.00706508 0)
(0.0953757 0.00955489 0)
(0.0949915 0.0113284 0)
(0.0950318 0.0135048 0)
(0.0937244 0.0185713 0)
(0.100234 0.000110566 0)
(0.0997767 0.000347133 0)
(0.10009 0.000539436 0)
(0.100714 0.000667012 0)
(0.100356 0.000789876 0)
(0.100273 0.000940992 0)
(0.100841 0.00109003 0)
(0.10112 0.00119449 0)
(0.101002 0.00123877 0)
(0.10097 0.00123587 0)
(0.101076 0.0012139 0)
(0.101109 0.00120161 0)
(0.101031 0.00121869 0)
(0.100923 0.00127472 0)
(0.100799 0.00137573 0)
(0.100676 0.00152367 0)
(0.100476 0.0017268 0)
(0.100341 0.00198256 0)
(0.100005 0.00231593 0)
(0.0999467 0.00270425 0)
(0.0993422 0.00323234 0)
(0.099512 0.00377782 0)
(0.0984944 0.00464628 0)
(0.0989937 0.00534123 0)
(0.0976525 0.00681154 0)
(0.0982972 0.00767015 0)
(0.0970979 0.00995807 0)
(0.0977177 0.0112574 0)
(0.0970762 0.0143844 0)
(0.0979473 0.0162766 0)
(0.100235 8.22846e-05 0)
(0.0997613 0.00026352 0)
(0.10005 0.000418061 0)
(0.100652 0.000520331 0)
(0.100278 0.000617594 0)
(0.100183 0.000749253 0)
(0.100741 0.0008991 0)
(0.101019 0.00102772 0)
(0.100912 0.00111291 0)
(0.100903 0.00115813 0)
(0.101041 0.0011837 0)
(0.101114 0.00121337 0)
(0.101078 0.00126558 0)
(0.101015 0.00135184 0)
(0.100937 0.00147885 0)
(0.100865 0.00165283 0)
(0.100721 0.00187777 0)
(0.100649 0.00216317 0)
(0.100385 0.00251165 0)
(0.100413 0.00294308 0)
(0.0999146 0.00346286 0)
(0.100192 0.00408154 0)
(0.0993621 0.00487332 0)
(0.0999491 0.00570854 0)
(0.0989942 0.00691597 0)
(0.099569 0.00809602 0)
(0.0991739 0.00964661 0)
(0.0993273 0.0117104 0)
(0.100022 0.0131145 0)
(0.100137 0.0165921 0)
(0.100235 6.17884e-05 0)
(0.0997546 0.000204664 0)
(0.100032 0.000334504 0)
(0.100622 0.000421651 0)
(0.100238 0.000502459 0)
(0.100134 0.000617436 0)
(0.100685 0.00076068 0)
(0.100963 0.000898109 0)
(0.100866 0.00100558 0)
(0.100876 0.0010808 0)
(0.101043 0.00113858 0)
(0.101149 0.00119896 0)
(0.101151 0.00127845 0)
(0.10113 0.00138896 0)
(0.101097 0.00153697 0)
(0.101074 0.00173096 0)
(0.100986 0.00197153 0)
(0.100975 0.00227622 0)
(0.100787 0.0026315 0)
(0.100889 0.00308635 0)
(0.100506 0.00358971 0)
(0.100867 0.00424392 0)
(0.100219 0.00496351 0)
(0.100896 0.0058544 0)
(0.100194 0.00688881 0)
(0.100911 0.00810203 0)
(0.100749 0.00944638 0)
(0.101218 0.0111771 0)
(0.101942 0.0128159 0)
(0.102524 0.0149244 0)
(0.100235 4.3876e-05 0)
(0.0997515 0.000152069 0)
(0.100024 0.000255313 0)
(0.100607 0.000322126 0)
(0.100217 0.000382016 0)
(0.10011 0.000476761 0)
(0.100661 0.000609144 0)
(0.100944 0.000750314 0)
(0.100858 0.000874413 0)
(0.100887 0.000974211 0)
(0.101078 0.00105975 0)
(0.101214 0.00114759 0)
(0.10125 0.00125174 0)
(0.101266 0.00138351 0)
(0.101276 0.00154899 0)
(0.101299 0.00175808 0)
(0.101266 0.00200847 0)
(0.101309 0.00232335 0)
(0.101198 0.00267735 0)
(0.10136 0.00313934 0)
(0.101098 0.00361914 0)
(0.101514 0.00427993 0)
(0.101056 0.0049263 0)
(0.101768 0.00583429 0)
(0.101339 0.00668543 0)
(0.102075 0.00795492 0)
(0.102248 0.00892441 0)
(0.10272 0.0107418 0)
(0.103744 0.0117834 0)
(0.104453 0.0139789 0)
(0.100235 2.69668e-05 0)
(0.0997505 0.000101941 0)
(0.100022 0.000178784 0)
(0.100604 0.000225384 0)
(0.100215 0.000264802 0)
(0.10011 0.000338748 0)
(0.100664 0.000457065 0)
(0.100954 0.000596509 0)
(0.100881 0.000730943 0)
(0.100928 0.000849343 0)
(0.101141 0.000957307 0)
(0.101304 0.00106778 0)
(0.10137 0.00119223 0)
(0.10142 0.00134101 0)
(0.101469 0.00151952 0)
(0.101533 0.00173794 0)
(0.101551 0.00199225 0)
(0.101643 0.00230847 0)
(0.101607 0.00265485 0)
(0.101819 0.0031088 0)
(0.101672 0.0035617 0)
(0.102126 0.00420196 0)
(0.101843 0.00478527 0)
(0.102578 0.00565913 0)
(0.102367 0.00638169 0)
(0.103147 0.00758617 0)
(0.103506 0.00837516 0)
(0.104089 0.00997318 0)
(0.105208 0.0109069 0)
(0.105995 0.012626 0)
(0.100235 1.03599e-05 0)
(0.0997517 5.18229e-05 0)
(0.100025 0.000101339 0)
(0.100612 0.000126907 0)
(0.100228 0.000144852 0)
(0.100127 0.00019581 0)
(0.100689 0.000296541 0)
(0.100989 0.000430091 0)
(0.100931 0.000570722 0)
(0.100995 0.000703867 0)
(0.101229 0.000830789 0)
(0.101415 0.00096078 0)
(0.101508 0.0011025 0)
(0.101588 0.00126466 0)
(0.101671 0.00145183 0)
(0.101771 0.00167428 0)
(0.101836 0.00192721 0)
(0.10197 0.00223725 0)
(0.102003 0.00256994 0)
(0.102255 0.00300436 0)
(0.102217 0.00342606 0)
(0.102693 0.00402894 0)
(0.102573 0.00455099 0)
(0.103307 0.00536832 0)
(0.103291 0.00597367 0)
(0.104088 0.00709849 0)
(0.104598 0.00770517 0)
(0.105259 0.00914962 0)
(0.106411 0.00987323 0)
(0.107344 0.0113308 0)
(0.100235 -7.19967e-06 0)
(0.0997543 -1.06602e-06 0)
(0.100034 1.98934e-05 0)
(0.10063 2.42786e-05 0)
(0.100253 2.09884e-05 0)
(0.100161 4.89394e-05 0)
(0.100735 0.000130908 0)
(0.101049 0.000256071 0)
(0.101007 0.00039944 0)
(0.101088 0.000543871 0)
(0.10134 0.000686615 0)
(0.101546 0.000832835 0)
(0.101661 0.000988191 0)
(0.101764 0.00115971 0)
(0.101877 0.00135127 0)
(0.102008 0.00157274 0)
(0.102114 0.00181927 0)
(0.102283 0.00211613 0)
(0.102379 0.00242989 0)
(0.102662 0.00283527 0)
(0.102722 0.00322318 0)
(0.10321 0.00377501 0)
(0.103234 0.00424109 0)
(0.103958 0.00498003 0)
(0.104104 0.00549358 0)
(0.104909 0.00650128 0)
(0.105524 0.0069851 0)
(0.10625 0.00823202 0)
(0.107418 0.00882273 0)
(0.108393 0.0100253 0)
(0.100235 -2.70947e-05 0)
(0.0997601 -6.17497e-05 0)
(0.100051 -7.48652e-05 0)
(0.10066 -9.57328e-05 0)
(0.100298 -0.000123832 0)
(0.100219 -0.000123436 0)
(0.100805 -6.46056e-05 0)
(0.101135 4.94922e-05 0)
(0.101108 0.000196598 0)
(0.101203 0.000355677 0)
(0.10147 0.000517533 0)
(0.101692 0.000681334 0)
(0.101824 0.000849881 0)
(0.101946 0.00102897 0)
(0.102082 0.00122198 0)
(0.102238 0.00143829 0)
(0.10238 0.0016738 0)
(0.102578 0.00195184 0)
(0.102728 0.00224217 0)
(0.103035 0.00261167 0)
(0.103181 0.00296287 0)
(0.103673 0.00345519 0)
(0.103822 0.00386763 0)
(0.104529 0.00451709 0)
(0.10481 0.00495366 0)
(0.105614 0.00583103 0)
(0.106301 0.00621846 0)
(0.107083 0.00727509 0)
(0.108229 0.00775254 0)
(0.109266 0.00872028 0)
(0.100234 -4.94314e-05 0)
(0.0997669 -0.000128566 0)
(0.100072 -0.000172721 0)
(0.100701 -0.00021155 0)
(0.100357 -0.00025813 0)
(0.100295 -0.000281733 0)
(0.100902 -0.00024327 0)
(0.101254 -0.000137467 0)
(0.101246 1.40621e-05 0)
(0.101354 0.000184726 0)
(0.10163 0.000358513 0)
(0.101859 0.0005316 0)
(0.101999 0.000705649 0)
(0.102132 0.000885402 0)
(0.102285 0.00107378 0)
(0.102459 0.00127921 0)
(0.102629 0.00149845 0)
(0.10285 0.00175223 0)
(0.103045 0.00201471 0)
(0.10337 0.00234304 0)
(0.103588 0.00265464 0)
(0.104081 0.00308257 0)
(0.104333 0.00344246 0)
(0.10502 0.00399743 0)
(0.10541 0.00436754 0)
(0.106208 0.0051087 0)
(0.106945 0.00542263 0)
(0.107766 0.00629549 0)
(0.108888 0.00667703 0)
(0.109947 0.00745268 0)
(0.100234 -8.20075e-05 0)
(0.0997855 -0.000229657 0)
(0.100121 -0.000324808 0)
(0.100778 -0.000395885 0)
(0.100457 -0.000473711 0)
(0.100417 -0.000529193 0)
(0.101046 -0.000511415 0)
(0.101416 -0.000408566 0)
(0.101416 -0.000245177 0)
(0.101523 -5.3341e-05 0)
(0.101797 0.000146502 0)
(0.102027 0.000344869 0)
(0.102171 0.00053553 0)
(0.102311 0.000720777 0)
(0.102475 0.000905024 0)
(0.102662 0.00109769 0)
(0.102854 0.00129761 0)
(0.103092 0.00152334 0)
(0.103324 0.00175439 0)
(0.103663 0.00203791 0)
(0.103941 0.00230718 0)
(0.104431 0.00266863 0)
(0.104768 0.00297561 0)
(0.105435 0.00343632 0)
(0.105911 0.00374528 0)
(0.106699 0.0043534 0)
(0.10747 0.00460611 0)
(0.108319 0.00530894 0)
(0.109409 0.00561045 0)
(0.110482 0.00621353 0)
(0.100232 -0.00011082 0)
(0.099805 -0.000310822 0)
(0.10018 -0.000424522 0)
(0.100876 -0.000500129 0)
(0.10059 -0.000590865 0)
(0.100586 -0.000667156 0)
(0.101251 -0.000666443 0)
(0.101646 -0.000569723 0)
(0.101655 -0.000399868 0)
(0.101762 -0.000193585 0)
(0.102029 1.98322e-05 0)
(0.102245 0.000220437 0)
(0.102373 0.000402124 0)
(0.102501 0.000573202 0)
(0.102661 0.000739323 0)
(0.102851 0.000909023 0)
(0.103055 0.00108218 0)
(0.103304 0.00127415 0)
(0.103564 0.00146934 0)
(0.103913 0.00170469 0)
(0.104237 0.00192904 0)
(0.104723 0.00222319 0)
(0.105128 0.00247641 0)
(0.105775 0.00284532 0)
(0.106318 0.00309575 0)
(0.107094 0.00357814 0)
(0.107888 0.00377609 0)
(0.108753 0.0043251 0)
(0.109813 0.00455559 0)
(0.110887 0.00501367 0)
(0.100228 -0.000205352 0)
(0.0998648 -0.00056485 0)
(0.100305 -0.000734412 0)
(0.10104 -0.000841748 0)
(0.100791 -0.000981338 0)
(0.10083 -0.00109136 0)
(0.101526 -0.00108788 0)
(0.101931 -0.000958741 0)
(0.10193 -0.00073403 0)
(0.102008 -0.000464856 0)
(0.102236 -0.000201908 0)
(0.102417 2.77282e-05 0)
(0.102526 0.000226727 0)
(0.102649 0.000401001 0)
(0.102811 0.000557137 0)
(0.103004 0.000705857 0)
(0.103219 0.000851216 0)
(0.103477 0.00100733 0)
(0.103759 0.0011642 0)
(0.104114 0.00134946 0)
(0.104474 0.00152703 0)
(0.104957 0.0017539 0)
(0.105412 0.00195307 0)
(0.106043 0.00223315 0)
(0.106636 0.00242752 0)
(0.107399 0.00279106 0)
(0.108207 0.00293892 0)
(0.109082 0.00334883 0)
(0.110115 0.00351473 0)
(0.111183 0.00384831 0)
(0.100217 -0.000240956 0)
(0.100001 -0.000625215 0)
(0.100588 -0.000761061 0)
(0.101374 -0.000874813 0)
(0.10118 -0.00104327 0)
(0.101294 -0.00116086 0)
(0.102033 -0.00114659 0)
(0.102433 -0.000996114 0)
(0.102394 -0.000746893 0)
(0.102407 -0.000468035 0)
(0.10256 -0.000217796 0)
(0.102676 -1.31748e-05 0)
(0.102734 0.000152019 0)
(0.102815 0.00028776 0)
(0.102949 0.000405309 0)
(0.103128 0.000514717 0)
(0.103341 0.000620743 0)
(0.103601 0.000733552 0)
(0.103895 0.000847523 0)
(0.104255 0.000979358 0)
(0.104641 0.00110891 0)
(0.105122 0.00126675 0)
(0.105613 0.00141359 0)
(0.106233 0.00160459 0)
(0.10686 0.0017474 0)
(0.107616 0.00199764 0)
(0.108431 0.00209895 0)
(0.109314 0.00238252 0)
(0.11032 0.00248992 0)
(0.111389 0.00270989 0)
(0.100209 -0.000722223 0)
(0.100122 -0.0013899 0)
(0.100757 -0.00137977 0)
(0.101493 -0.00152498 0)
(0.101229 -0.00178483 0)
(0.101241 -0.00187924 0)
(0.101837 -0.00177792 0)
(0.102092 -0.00151539 0)
(0.101935 -0.00111676 0)
(0.101865 -0.000693058 0)
(0.101966 -0.000354939 0)
(0.102057 -0.00012218 0)
(0.102113 3.57766e-05 0)
(0.102207 0.000150542 0)
(0.102361 0.000237711 0)
(0.102559 0.000310466 0)
(0.102791 0.000377025 0)
(0.103069 0.000445775 0)
(0.103386 0.0005148 0)
(0.103765 0.00059311 0)
(0.104175 0.000671894 0)
(0.10468 0.000762851 0)
(0.105188 0.000854735 0)
(0.105853 0.000959686 0)
(0.106463 0.0010533 0)
(0.107312 0.0011885 0)
(0.108045 0.00125704 0)
(0.109072 0.00140952 0)
(0.109941 0.00147651 0)
(0.111173 0.00158044 0)
(0.0992062 -0.000639628 0)
(0.0982012 -0.00114459 0)
(0.0975083 -0.00110032 0)
(0.0964466 -0.00123772 0)
(0.094298 -0.00144674 0)
(0.0924277 -0.00148466 0)
(0.0911314 -0.00135086 0)
(0.0897091 -0.00109561 0)
(0.0883518 -0.000763897 0)
(0.0875348 -0.000454744 0)
(0.0871915 -0.000239384 0)
(0.0870382 -0.000108482 0)
(0.0869779 -2.36687e-05 0)
(0.0870197 3.45353e-05 0)
(0.0871473 7.27307e-05 0)
(0.0873324 0.000100124 0)
(0.0875604 0.00012295 0)
(0.0878338 0.000145437 0)
(0.0881493 0.000167415 0)
(0.0885192 0.000192273 0)
(0.0889291 0.000216699 0)
(0.0894142 0.000245346 0)
(0.089923 0.000273751 0)
(0.0905544 0.000304938 0)
(0.0911581 0.000336135 0)
(0.0919655 0.000370961 0)
(0.0926663 0.000398027 0)
(0.09365 0.000434031 0)
(0.0944477 0.000456027 0)
(0.095616 0.000473251 0)
(0.0435341 0.0123853 0)
(0.069808 0.0336819 0)
(0.0604115 0.0119015 0)
(0.0956141 0.052675 9.89047e-22)
(0.0539625 0.0216945 6.96992e-22)
(0.121601 0.0395751 0)
(0.0773095 0.0446119 2.84431e-22)
(0.0989374 0.0426111 -2.81668e-22)
(0.132447 0.0390366 6.11304e-22)
(0.143653 0.0644356 0)
(0.072213 0.0229279 0)
(0.0875305 0.03113 0)
(0.0908673 0.0376321 0)
(0.0875382 0.040042 0)
(0.112294 0.041218 0)
(0.106515 0.0489001 2.04415e-22)
(0.107199 0.0622592 1.67251e-23)
(0.127717 0.0325042 -2.07885e-22)
(0.148708 0.0474782 -6.80077e-22)
(0.144093 0.0817964 -7.56413e-22)
(0.0864887 0.0205871 0)
(0.0859745 0.0301588 0)
(0.0961611 0.0283095 0)
(0.0972951 0.0322181 0)
(0.106738 0.0389614 0)
(0.105206 0.0303136 -2.04445e-22)
(0.122279 0.0538527 -1.67277e-23)
(0.137918 0.0287366 2.07878e-22)
(0.122975 0.0214503 3.92587e-22)
(0.14573 0.0672319 7.56429e-22)
(0.0891543 0.0236057 -4.85687e-22)
(0.094395 0.025208 0)
(0.100726 0.0300588 -3.75657e-22)
(0.100238 0.0337941 -3.13841e-22)
(0.111397 0.0355412 -2.1987e-22)
(0.112599 0.0340926 0)
(0.12044 0.0432196 0)
(0.137337 0.0377881 1.57701e-22)
(0.125948 0.0292168 3.06064e-22)
(0.14522 0.0398994 4.0018e-22)
(0.0955459 0.0192965 4.85691e-22)
(0.097452 0.0254375 0)
(0.10188 0.0267687 3.75659e-22)
(0.105562 0.025758 3.13843e-22)
(0.111683 0.0330142 2.19871e-22)
(0.115904 0.0276438 0)
(0.122518 0.0343448 0)
(0.13228 0.0240299 -1.57705e-22)
(0.133872 0.0231712 -3.06071e-22)
(0.143148 0.0323891 -4.00191e-22)
(0.09837 0.0205422 0)
(0.100403 0.0221332 -3.62278e-22)
(0.106278 0.0241883 0)
(0.107945 0.0272128 -2.53006e-22)
(0.113779 0.0279626 0)
(0.118345 0.0266542 0)
(0.124392 0.0308839 0)
(0.131231 0.0269845 -1.04314e-22)
(0.131741 0.0226262 0)
(0.138929 0.0223135 0)
(0.101268 0.0177797 3.66348e-22)
(0.104036 0.0205404 6.95851e-22)
(0.107057 0.0226886 2.87558e-22)
(0.110608 0.0215957 2.53006e-22)
(0.115344 0.0252917 0)
(0.119281 0.0228213 -9.5012e-23)
(0.124015 0.0239555 0)
(0.130211 0.0196053 1.04314e-22)
(0.133532 0.0187738 0)
(0.137284 0.0166366 0)
(0.103879 0.0170301 -3.66349e-22)
(0.10565 0.0186863 -3.33572e-22)
(0.109629 0.019524 -2.87558e-22)
(0.112383 0.0210756 0)
(0.116283 0.021458 0)
(0.12025 0.0206075 9.50122e-23)
(0.125065 0.0216037 0)
(0.128721 0.0189019 0)
(0.131722 0.016473 0)
(0.135456 0.0138696 0)
(0.105582 0.0152782 0)
(0.107953 0.016473 -2.89451e-22)
(0.110673 0.0179693 0)
(0.113621 0.0175981 -2.06085e-22)
(0.117291 0.0187345 0)
(0.12064 0.0177634 0)
(0.124349 0.0174881 -3.28677e-23)
(0.12814 0.0147538 3.01813e-23)
(0.131032 0.0134384 0)
(0.133383 0.010164 1.37924e-22)
(0.107358 0.0137641 0)
(0.109229 0.0148911 2.89452e-22)
(0.111976 0.0154675 0)
(0.114667 0.0159331 2.06085e-22)
(0.117819 0.0161313 0)
(0.120855 0.0154708 0)
(0.124394 0.0151189 3.28678e-23)
(0.127025 0.0132338 -3.01814e-23)
(0.129663 0.011443 0)
(0.131891 0.00882397 -1.37924e-22)
(0.108568 0.0122562 1.41531e-22)
(0.110515 0.0129506 0)
(0.112814 0.0136874 0)
(0.115297 0.0136155 9.56425e-23)
(0.118227 0.0137928 0)
(0.120926 0.0131658 0)
(0.123731 0.012531 0)
(0.126264 0.01064 4.15451e-24)
(0.128557 0.00930329 0)
(0.130239 0.00668076 0)
(0.10967 0.0107189 -6.14149e-24)
(0.111415 0.0113662 0)
(0.113517 0.0117341 1.1064e-22)
(0.115814 0.011813 -2.14604e-24)
(0.118436 0.0117687 0)
(0.120815 0.0111833 0)
(0.123361 0.0105236 3.29029e-23)
(0.125396 0.00911004 -4.15452e-24)
(0.12744 0.00772165 -7.85242e-24)
(0.128968 0.00565053 -2.56488e-23)
(0.110497 0.0092849 -4.93413e-24)
(0.112155 0.00972283 0)
(0.114038 0.0100386 -2.92713e-24)
(0.116131 0.0100112 -1.33175e-24)
(0.118505 0.00988352 7.45196e-23)
(0.120657 0.00932362 -5.60996e-23)
(0.122799 0.0086701 4.83381e-24)
(0.124669 0.00735641 1.91252e-23)
(0.126454 0.00622364 8.93998e-24)
(0.127761 0.00435755 1.04597e-23)
(0.111169 0.00787422 -1.30456e-22)
(0.112712 0.00822265 0)
(0.114429 0.00841104 -1.07713e-22)
(0.116355 0.00838868 -9.2165e-23)
(0.118492 0.0082058 -7.45196e-23)
(0.120425 0.00769114 1.14714e-22)
(0.122349 0.00707117 -3.77368e-23)
(0.123982 0.00603045 -1.91252e-23)
(0.125582 0.00499454 -1.08755e-24)
(0.12677 0.00350029 1.51892e-23)
(0.111681 0.00653517 0)
(0.113134 0.00677594 0)
(0.114718 0.00690603 0)
(0.116485 0.00686208 0)
(0.118413 0.00665245 0)
(0.120183 0.00618423 -5.86145e-23)
(0.121892 0.00562926 0)
(0.123393 0.00473123 0)
(0.124827 0.0038772 0)
(0.125917 0.00261592 0)
(0.112067 0.00524509 0)
(0.113443 0.00541273 0)
(0.114923 0.0054877 0)
(0.116553 0.00543646 0)
(0.118302 0.00522496 0)
(0.119932 0.00481798 -3.16069e-23)
(0.121499 0.00433276 0)
(0.122878 0.00361699 0)
(0.124193 0.00289851 0)
(0.125212 0.0019015 0)
(0.112344 0.00400594 0)
(0.113656 0.00411224 0)
(0.115061 0.00414288 5.09865e-23)
(0.116569 0.00408625 0)
(0.118178 0.00388034 3.91887e-23)
(0.11969 0.0035393 3.16069e-23)
(0.121156 0.00313102 0)
(0.122436 0.00255893 1.89618e-23)
(0.123665 0.00198681 0)
(0.124616 0.00120338 0)
(0.112524 0.00280518 0)
(0.113764 0.00286951 0)
(0.115115 0.00286154 -5.09866e-23)
(0.116484 0.00280567 0)
(0.118002 0.00262243 -3.91888e-23)
(0.11936 0.00234531 0)
(0.12078 0.0020217 0)
(0.121903 0.0015956 -1.89619e-23)
(0.123099 0.00115778 0)
(0.123893 0.000586951 0)
(0.112149 0.00162371 -1.47931e-23)
(0.113167 0.0016406 -1.38292e-23)
(0.114362 0.00159595 -1.27187e-23)
(0.115433 0.00153186 0)
(0.116801 0.00137262 -1.00458e-23)
(0.117783 0.00117457 0)
(0.119122 0.000908585 -6.94923e-24)
(0.119778 0.000629657 0)
(0.120914 0.000304161 -3.73982e-24)
(0.121112 -6.28622e-05 -2.18097e-24)
(0.0964746 0.000464253 1.47915e-23)
(0.0973069 0.000419965 1.38276e-23)
(0.0981747 0.000359222 1.27172e-23)
(0.0988926 0.000285469 0)
(0.0997065 0.000177573 1.00444e-23)
(0.100144 5.83809e-05 0)
(0.10066 -0.000106046 6.94818e-24)
(0.100492 -0.000224337 0)
(0.100559 -0.000396275 3.73918e-24)
(0.0996497 -0.000532481 2.18058e-24)
(-0.0119173 -0.00231973 0)
(-0.0317535 0.00417152 0)
(-0.0613299 0.00961713 0)
(-0.0842421 0.0038609 0)
(-0.0728569 -0.00515779 0)
(-0.0479056 -0.00787472 0)
(-0.022126 -0.00783526 0)
(0.0013857 -0.00630413 0)
(0.0195694 -0.00473676 0)
(0.0339457 -0.00338332 0)
(0.044653 -0.00232531 0)
(0.0525321 -0.00154515 0)
(0.0582118 -0.000997415 0)
(0.0622582 -0.000633061 0)
(0.0651364 -0.000401534 0)
(0.0672011 -0.000258561 0)
(0.0687067 -0.000171294 0)
(0.0698271 -0.000117805 0)
(0.0706789 -8.43608e-05 0)
(0.0713396 -6.27792e-05 0)
(0.0718612 -4.8297e-05 0)
(0.0722791 -3.81179e-05 0)
(0.0726178 -3.06237e-05 0)
(0.0728947 -2.49225e-05 0)
(0.0731227 -2.04872e-05 0)
(0.0733115 -1.69688e-05 0)
(0.0734686 -1.41172e-05 0)
(0.0735999 -1.17963e-05 0)
(0.0737099 -9.88881e-06 0)
(0.0738023 -8.31257e-06 0)
(0.0738801 -7.04864e-06 0)
(0.0739459 -5.91605e-06 0)
(0.0740011 -5.25109e-06 0)
(0.0740494 -4.28534e-06 0)
(0.0740876 -4.26569e-06 0)
(0.0741268 -3.28753e-06 0)
(0.0741501 -3.6601e-06 0)
(0.0741869 -3.06588e-06 0)
(0.0741971 -3.31306e-06 0)
(0.0742357 -3.69981e-06 0)
(-0.00549172 0.0331691 0)
(-0.0343151 0.0288092 0)
(-0.0688752 0.0278704 0)
(-0.0946682 0.0111124 0)
(-0.0753775 -0.021005 0)
(-0.0469045 -0.0286629 0)
(-0.0164307 -0.0280651 0)
(0.00864265 -0.0233555 0)
(0.0280678 -0.0185369 0)
(0.0439021 -0.0143239 0)
(0.0563872 -0.0108235 0)
(0.0661553 -0.00802883 0)
(0.0736626 -0.00587362 0)
(0.0793639 -0.00426984 0)
(0.0836776 -0.003111 0)
(0.0869534 -0.00228879 0)
(0.0894628 -0.00170918 0)
(0.0914072 -0.00129892 0)
(0.0929323 -0.00100486 0)
(0.0941427 -0.000790239 0)
(0.0951139 -0.000630414 0)
(0.0959005 -0.000508924 0)
(0.0965428 -0.000414775 0)
(0.0970708 -0.000340626 0)
(0.0975071 -0.000281464 0)
(0.0978693 -0.000233743 0)
(0.0981713 -0.00019489 0)
(0.0984239 -0.000163011 0)
(0.0986356 -0.000136804 0)
(0.0988139 -0.000114906 0)
(0.0989634 -9.72322e-05 0)
(0.0990909 -8.14547e-05 0)
(0.0991961 -7.03886e-05 0)
(0.0992904 -5.78733e-05 0)
(0.0993616 -5.21749e-05 0)
(0.0994373 -4.19271e-05 0)
(0.0994801 -3.91131e-05 0)
(0.0995472 -3.1955e-05 0)
(0.0995668 -3.05476e-05 0)
(0.0996321 -2.60437e-05 0)
(-0.00739911 0.0314009 0)
(-0.0219751 0.0432046 0)
(-0.0718409 0.0512614 0)
(-0.0929358 0.0130677 0)
(-0.0742503 -0.0409106 0)
(-0.041323 -0.0524555 0)
(-0.00656552 -0.047768 0)
(0.0183695 -0.0383903 0)
(0.0352819 -0.0302709 0)
(0.0484579 -0.0237538 0)
(0.0591924 -0.0183417 0)
(0.0680083 -0.0139219 0)
(0.0750605 -0.0104373 0)
(0.0805781 -0.00778783 0)
(0.0848561 -0.00582705 0)
(0.0881774 -0.00439749 0)
(0.0907735 -0.0033593 0)
(0.092821 -0.00260178 0)
(0.0944509 -0.00204299 0)
(0.09576 -0.00162474 0)
(0.09682 -0.00130661 0)
(0.0976845 -0.00106078 0)
(0.098394 -0.000868004 0)
(0.0989793 -0.000714866 0)
(0.0994643 -0.000591883 0)
(0.099868 -0.0004922 0)
(0.100205 -0.000410799 0)
(0.100487 -0.000343838 0)
(0.100724 -0.000288715 0)
(0.100923 -0.000242582 0)
(0.10109 -0.000205284 0)
(0.101234 -0.000172076 0)
(0.101351 -0.000148359 0)
(0.101457 -0.000122282 0)
(0.101536 -0.000109248 0)
(0.101621 -8.82667e-05 0)
(0.101669 -8.11876e-05 0)
(0.101743 -6.60504e-05 0)
(0.101765 -6.26746e-05 0)
(0.101837 -5.1526e-05 0)
(0.00619657 0.0493417 0)
(-0.0241814 0.0699604 0)
(-0.0543877 0.0739214 0)
(-0.0664872 0.0204957 0)
(-0.0559108 -0.0617566 0)
(-0.0296903 -0.0834328 0)
(0.00463614 -0.071819 0)
(0.0320196 -0.0536097 0)
(0.0488137 -0.0399607 0)
(0.0589837 -0.0312209 0)
(0.0664258 -0.0246744 0)
(0.0727752 -0.0192074 0)
(0.0782351 -0.0146885 0)
(0.0827502 -0.0111292 0)
(0.0863791 -0.0084358 0)
(0.0892672 -0.0064418 0)
(0.0915698 -0.00497451 0)
(0.0934175 -0.00388961 0)
(0.0949112 -0.00307862 0)
(0.0961271 -0.00246393 0)
(0.0971229 -0.00199119 0)
(0.0979426 -0.0016225 0)
(0.0986205 -0.00133129 0)
(0.0991831 -0.00109867 0)
(0.0996516 -0.000911041 0)
(0.100043 -0.000758451 0)
(0.100371 -0.000633557 0)
(0.100646 -0.000530632 0)
(0.100877 -0.000445804 0)
(0.101072 -0.000374712 0)
(0.101236 -0.000317167 0)
(0.101376 -0.000265967 0)
(0.101491 -0.00022907 0)
(0.101596 -0.000189098 0)
(0.101673 -0.000168227 0)
(0.101757 -0.000136337 0)
(0.101804 -0.000124674 0)
(0.101877 -0.000101187 0)
(0.101898 -9.5794e-05 0)
(0.101968 -7.74761e-05 0)
(-0.0353578 0.05268 0)
(-0.0110422 0.0802259 0)
(-0.0193579 0.0789823 0)
(-0.0148941 0.0196618 0)
(-0.00870882 -0.0676167 0)
(0.00260655 -0.102479 0)
(0.0163353 -0.0948492 0)
(0.0362877 -0.0721281 0)
(0.0555295 -0.0502837 0)
(0.0678365 -0.0364893 0)
(0.0746455 -0.0282918 0)
(0.0790325 -0.0224222 0)
(0.0825897 -0.0175982 0)
(0.0857167 -0.0136337 0)
(0.0884263 -0.0105105 0)
(0.0907135 -0.0081308 0)
(0.0926159 -0.00634475 0)
(0.0941902 -0.00500457 0)
(0.0954929 -0.00399045 0)
(0.0965725 -0.00321348 0)
(0.0974693 -0.00261015 0)
(0.0982158 -0.00213559 0)
(0.0988387 -0.00175803 0)
(0.0993594 -0.00145461 0)
(0.0997955 -0.00120865 0)
(0.100161 -0.00100784 0)
(0.100469 -0.000842957 0)
(0.100728 -0.000706749 0)
(0.100946 -0.000594267 0)
(0.10113 -0.000499849 0)
(0.101285 -0.000423265 0)
(0.101418 -0.000355151 0)
(0.101527 -0.000305761 0)
(0.101627 -0.000252678 0)
(0.1017 -0.000224378 0)
(0.10178 -0.000182103 0)
(0.101824 -0.000166141 0)
(0.101893 -0.00013463 0)
(0.101914 -0.000127322 0)
(0.10198 -0.000102083 0)
(0.00938793 0.0811088 0)
(0.0770199 0.0623994 0)
(0.0569713 0.0824832 0)
(0.048524 0.0236018 0)
(0.0541925 -0.0688367 0)
(0.056156 -0.0991025 0)
(0.049914 -0.0933381 0)
(0.0443913 -0.0809481 0)
(0.0526622 -0.0622809 0)
(0.0661009 -0.0447986 0)
(0.0767283 -0.0325796 0)
(0.0830566 -0.024672 0)
(0.0865888 -0.0191958 0)
(0.088905 -0.0150657 0)
(0.0907737 -0.0118423 0)
(0.0924147 -0.00933426 0)
(0.0938613 -0.00740045 0)
(0.0951183 -0.00591268 0)
(0.0961971 -0.00476262 0)
(0.0971157 -0.00386586 0)
(0.0978945 -0.00315949 0)
(0.0985528 -0.00259745 0)
(0.0991087 -0.00214616 0)
(0.0995777 -0.00178086 0)
(0.0999733 -0.00148309 0)
(0.100307 -0.00123889 0)
(0.100589 -0.00103769 0)
(0.100827 -0.000871018 0)
(0.101028 -0.000733064 0)
(0.101199 -0.000617065 0)
(0.101343 -0.000522789 0)
(0.101466 -0.000438932 0)
(0.101568 -0.000377858 0)
(0.10166 -0.000312533 0)
(0.101729 -0.000277258 0)
(0.101803 -0.000225217 0)
(0.101844 -0.000205217 0)
(0.101909 -0.000166111 0)
(0.101928 -0.000156976 0)
(0.10199 -0.00012521 0)
(0.0226064 -0.00739358 0)
(0.0791896 0.0316326 0)
(0.0844618 0.0933643 0)
(0.102611 0.0277012 0)
(0.109192 -0.0717932 0)
(0.087436 -0.10468 0)
(0.0829699 -0.084354 0)
(0.073367 -0.0705127 0)
(0.0647945 -0.0635525 0)
(0.0665909 -0.0526232 0)
(0.0745441 -0.0399956 0)
(0.0825389 -0.0294355 0)
(0.087879 -0.0219007 0)
(0.0908932 -0.016775 0)
(0.0926961 -0.0131382 0)
(0.0940077 -0.0104146 0)
(0.0951149 -0.00832012 0)
(0.0960952 -0.00669527 0)
(0.0969622 -0.0054273 0)
(0.0977202 -0.00442992 0)
(0.0983763 -0.00363791 0)
(0.0989402 -0.00300305 0)
(0.0994223 -0.00248983 0)
(0.0998333 -0.00207192 0)
(0.100183 -0.00172952 0)
(0.10048 -0.00144751 0)
(0.100732 -0.00121432 0)
(0.100946 -0.00102058 0)
(0.101127 -0.000859824 0)
(0.101281 -0.000724394 0)
(0.101411 -0.00061411 0)
(0.101524 -0.000515947 0)
(0.101616 -0.000444226 0)
(0.1017 -0.000367701 0)
(0.101763 -0.000326034 0)
(0.10183 -0.000265003 0)
(0.101868 -0.000241292 0)
(0.101927 -0.000195169 0)
(0.101945 -0.000184347 0)
(0.102001 -0.000146538 0)
(0.141206 0.0170322 0)
(0.128534 0.0115231 0)
(0.12778 0.0703411 0)
(0.165408 0.0203091 0)
(0.179637 -0.0547255 0)
(0.12953 -0.0878472 0)
(0.0998962 -0.085058 0)
(0.10418 -0.067585 0)
(0.10369 -0.0557682 0)
(0.0946119 -0.049915 0)
(0.0882499 -0.0427452 0)
(0.0879184 -0.0331442 0)
(0.0903805 -0.0242711 0)
(0.0928389 -0.0178275 0)
(0.0945597 -0.0135851 0)
(0.095693 -0.0107542 0)
(0.0965206 -0.00871619 0)
(0.0972155 -0.00714346 0)
(0.0978425 -0.00588432 0)
(0.0984142 -0.00486224 0)
(0.0989289 -0.00402875 0)
(0.0993846 -0.00334725 0)
(0.0997831 -0.00278846 0)
(0.100128 -0.0023288 0)
(0.100425 -0.00194937 0)
(0.10068 -0.0016351 0)
(0.100898 -0.00137412 0)
(0.101084 -0.00115653 0)
(0.101242 -0.000975509 0)
(0.101378 -0.000822655 0)
(0.101492 -0.000697931 0)
(0.101591 -0.000586789 0)
(0.101673 -0.000505382 0)
(0.101747 -0.000418607 0)
(0.101803 -0.000371091 0)
(0.101863 -0.000301787 0)
(0.101897 -0.000274665 0)
(0.101949 -0.000222063 0)
(0.101965 -0.000209671 0)
(0.102015 -0.000166257 0)
(0.154042 0.0119125 0)
(0.159575 0.0163903 0)
(0.158219 0.0627923 0)
(0.201951 0.00588359 0)
(0.20289 -0.0438304 0)
(0.165796 -0.0514171 0)
(0.131631 -0.0659844 0)
(0.121689 -0.0737736 0)
(0.129082 -0.0593252 0)
(0.131005 -0.042222 0)
(0.121008 -0.0343812 0)
(0.108847 -0.0306039 0)
(0.101107 -0.0258342 0)
(0.0977765 -0.0204342 0)
(0.0968935 -0.0157648 0)
(0.0970445 -0.0122319 0)
(0.0975413 -0.00966967 0)
(0.0980974 -0.0077919 0)