/*--------------------------------*- C++ -*----------------------------------*\
| =========                 |                                                 |
| \\      /  F ield         | OpenFOAM: The Open Source CFD Toolbox           |
|  \\    /   O peration     | Version:  2112                                  |
|   \\  /    A nd           | Website:  www.openfoam.com                      |
|    \\/     M anipulation  |                                                 |
\*---------------------------------------------------------------------------*/
FoamFile
{
    version     2.0;
    format      ascii;
    arch        "LSB;label=32;scalar=64";
    class       volScalarField;
    location    "0.24";
    object      nut;
}
// * * * * * * * * * * * * * * * * * * * * * * * * * * * * * * * * * * * * * //

dimensions      [0 2 -1 0 0 0 0];

internalField   nonuniform List<scalar> 
1880
(
3.53609e-11
5.01629e-12
2.50762e-13
2.26632e-14
4.9062e-14
1.62423e-13
9.58047e-16
1.32197e-14
1.96939e-14
1.35841e-13
1.14957e-13
1.62253e-13
3.67268e-14
1.59701e-13
2.46135e-13
2.31805e-13
8.56913e-14
5.76183e-13
2.3159e-13
1.89379e-12
6.998e-13
1.81843e-12
9.08747e-12
6.63576e-13
1.77626e-11
1.88301e-11
1.01083e-12
6.68398e-10
1.60341e-10
3.67751e-10
4.87037e-09
5.92402e-09
1.11111e-09
1.4474e-10
1.21441e-10
4.70359e-11
1.8329e-11
5.5912e-12
1.35325e-11
2.54307e-11
6.90436e-11
8.3781e-12
6.8708e-12
2.04685e-12
3.921e-12
1.32229e-11
2.91934e-12
2.02274e-11
2.65897e-12
1.15047e-11
8.84308e-13
2.59005e-13
3.88278e-11
3.2389e-10
7.71832e-10
2.51901e-09
6.22148e-09
3.88817e-09
1.55968e-08
3.44175e-08
1.68046e-09
1.97003e-09
8.40605e-10
3.99842e-10
1.16192e-09
1.95448e-09
2.05619e-09
2.00206e-09
1.12549e-09
5.60708e-09
7.81728e-10
1.58528e-09
5.25728e-10
1.00654e-10
9.73149e-10
2.43481e-10
9.43124e-10
4.57007e-10
1.87389e-10
1.85344e-09
6.31481e-11
1.46918e-09
8.23739e-09
1.42903e-09
1.60679e-08
1.64027e-08
6.3112e-09
4.48799e-08
2.17446e-08
2.77623e-08
4.88836e-13
1.54954e-11
3.08632e-10
6.7457e-10
1.85734e-09
2.59267e-09
9.12519e-10
2.40992e-09
8.96403e-11
1.94517e-08
3.61007e-09
1.94014e-08
1.32539e-09
1.78155e-08
1.19734e-08
8.23765e-09
5.45125e-09
5.96375e-09
2.38077e-10
3.81475e-09
3.98841e-09
7.77447e-09
1.31191e-08
1.33855e-08
1.85791e-08
1.75912e-08
2.10188e-08
2.80637e-08
2.97802e-08
3.22394e-08
1.76747e-11
3.15027e-10
6.37637e-10
1.97721e-10
6.2563e-10
1.16593e-09
4.27674e-10
4.54965e-11
1.52099e-09
8.55738e-09
1.07044e-09
4.49966e-09
7.3841e-09
1.33493e-08
7.31422e-09
3.06766e-09
1.00734e-08
4.82456e-09
2.67823e-09
2.86712e-09
2.61816e-09
6.7128e-09
4.02104e-09
8.97549e-09
1.18153e-08
1.6709e-08
1.42042e-08
2.52967e-08
2.29322e-08
2.8204e-08
4.25752e-13
3.19535e-12
1.55295e-11
1.4801e-10
1.3964e-09
4.59318e-10
8.08228e-10
1.2172e-09
3.96319e-10
8.47853e-09
1.20046e-09
4.57491e-09
4.21018e-09
5.1993e-09
2.31644e-09
7.38281e-09
3.44164e-09
1.90983e-09
1.37692e-09
1.98623e-09
3.18337e-09
5.82034e-09
5.70483e-09
9.79221e-09
1.0902e-08
1.48494e-08
1.58631e-08
2.00421e-08
2.42102e-08
2.32843e-08
2.55623e-13
2.4463e-11
3.0056e-10
2.37964e-10
9.95849e-10
1.62066e-09
8.74106e-10
1.18838e-09
1.73315e-09
9.10971e-10
1.81473e-09
4.62989e-09
7.69955e-09
2.86824e-09
6.00254e-09
7.42052e-09
7.12986e-09
2.39688e-09
2.65709e-09
3.90124e-09
3.02847e-09
5.91742e-09
6.98199e-09
7.70723e-09
1.05981e-08
1.27515e-08
1.35689e-08
1.81385e-08
2.04192e-08
2.1611e-08
7.11119e-13
2.14098e-11
2.44988e-10
3.65539e-10
1.45327e-09
1.35984e-09
1.17405e-09
2.13284e-09
1.31649e-09
7.0333e-10
1.65466e-09
5.0907e-09
4.97184e-09
1.80941e-09
2.86484e-09
6.12512e-09
3.46615e-09
2.2336e-09
3.14407e-09
3.98941e-09
4.53831e-09
6.46603e-09
7.50844e-09
9.48294e-09
1.13378e-08
1.22056e-08
1.415e-08
1.60721e-08
1.98618e-08
1.91899e-08
1.99788e-12
5.39159e-11
4.27583e-10
5.73602e-10
1.56262e-09
2.00338e-09
1.41358e-09
2.34964e-09
1.83419e-09
1.49094e-09
2.0468e-09
4.86649e-09
5.25855e-09
1.90758e-09
2.99861e-09
4.82191e-09
2.8827e-09
3.51912e-09
3.20824e-09
4.78086e-09
5.00659e-09
5.85751e-09
7.82128e-09
8.42558e-09
1.05656e-08
1.18516e-08
1.27015e-08
1.47973e-08
1.74568e-08
1.79449e-08
7.08638e-12
1.48741e-10
6.4689e-10
8.23081e-10
1.75306e-09
2.32148e-09
1.6442e-09
2.65975e-09
1.95092e-09
2.13565e-09
2.24612e-09
4.47518e-09
4.26277e-09
2.2424e-09
2.81999e-09
4.4083e-09
3.1682e-09
3.68477e-09
3.96649e-09
4.99009e-09
5.54241e-09
6.6269e-09
8.23641e-09
8.69568e-09
1.02923e-08
1.07395e-08
1.23716e-08
1.38047e-08
1.65457e-08
1.65439e-08
3.87583e-11
3.45406e-10
8.75537e-10
1.06958e-09
1.93492e-09
2.35313e-09
1.83538e-09
3.04286e-09
2.03004e-09
2.3511e-09
2.52644e-09
4.46206e-09
3.59942e-09
2.63991e-09
2.94782e-09
4.27615e-09
3.16672e-09
4.40843e-09
4.44378e-09
5.18017e-09
5.84917e-09
6.51975e-09
8.00599e-09
8.55137e-09
9.5191e-09
1.0584e-08
1.15793e-08
1.29498e-08
1.51084e-08
1.57617e-08
1.15695e-10
5.27193e-10
1.10718e-09
1.24779e-09
1.94562e-09
2.6375e-09
1.95996e-09
3.01001e-09
2.33258e-09
3.07325e-09
2.72658e-09
3.95166e-09
3.77091e-09
3.16481e-09
3.36214e-09
4.26059e-09
3.6369e-09
4.58615e-09
4.73081e-09
5.41845e-09
6.16068e-09
6.75192e-09
7.92404e-09
8.28639e-09
9.32718e-09
1.01099e-08
1.12693e-08
1.2323e-08
1.43096e-08
1.48073e-08
5.5541e-11
4.86922e-10
1.01311e-09
1.36714e-09
2.0769e-09
2.21333e-09
2.03235e-09
3.34624e-09
2.25286e-09
2.8878e-09
2.99146e-09
4.17184e-09
3.22947e-09
3.37095e-09
3.758e-09
4.5373e-09
3.87328e-09
4.61526e-09
5.02418e-09
5.60672e-09
6.21855e-09
6.89859e-09
7.5705e-09
8.32348e-09
8.95896e-09
9.92149e-09
1.08432e-08
1.17598e-08
1.33197e-08
1.41851e-08
1.17057e-11
3.97049e-10
1.23879e-09
1.37413e-09
1.87609e-09
2.54054e-09
2.05801e-09
3.14157e-09
2.51268e-09
3.46435e-09
3.07004e-09
3.879e-09
3.55031e-09
3.95981e-09
3.97722e-09
4.59379e-09
4.19087e-09
5.01611e-09
5.22544e-09
5.77928e-09
6.42163e-09
6.93087e-09
7.5955e-09
8.14272e-09
8.79778e-09
9.57287e-09
1.04587e-08
1.12615e-08
1.26305e-08
1.34637e-08
2.03061e-12
1.84766e-10
4.48351e-10
1.37555e-09
2.1331e-09
1.35227e-09
1.98563e-09
3.44131e-09
2.12517e-09
2.74784e-09
3.28257e-09
3.97861e-09
3.15007e-09
3.78267e-09
4.26141e-09
4.82188e-09
4.31276e-09
4.68326e-09
5.26859e-09
5.84455e-09
6.27061e-09
6.90467e-09
7.25731e-09
7.97505e-09
8.50796e-09
9.18437e-09
1.00235e-08
1.07768e-08
1.18824e-08
1.28806e-08
5.00318e-11
6.42752e-10
1.51758e-09
1.41626e-09
1.73101e-09
2.05724e-09
1.87437e-09
2.63008e-09
2.67252e-09
3.55297e-09
3.0806e-09
3.50084e-09
3.46113e-09
4.19705e-09
4.28462e-09
4.807e-09
4.52037e-09
5.18175e-09
5.53696e-09
6.02214e-09
6.39161e-09
6.86335e-09
7.14342e-09
7.64009e-09
8.06004e-09
8.7018e-09
9.49814e-09
1.02508e-08
1.12889e-08
1.22605e-08
1.16497e-12
1.49344e-11
3.35915e-11
1.18876e-09
1.7643e-09
4.81965e-10
1.26529e-09
2.25632e-09
1.34942e-09
1.75407e-09
3.38847e-09
3.45019e-09
2.65249e-09
3.4354e-09
4.49266e-09
4.89985e-09
4.6426e-09
5.08362e-09
5.57989e-09
6.01964e-09
6.02635e-09
6.25266e-09
6.36531e-09
6.77336e-09
7.29675e-09
7.85183e-09
8.80432e-09
9.65133e-09
1.06666e-08
1.16935e-08
1.99978e-09
2.39471e-09
1.57943e-09
1.81581e-09
1.91864e-09
2.67303e-09
3.06878e-09
3.23424e-09
3.51209e-09
3.37126e-09
2.39286e-09
1.75196e-09
5.1249e-10
3.26251e-10
5.05085e-11
1.34923e-10
6.60653e-11
4.32118e-11
1.00206e-10
3.96738e-10
1.74406e-09
1.57067e-09
8.33324e-10
1.01645e-10
1.02978e-12
1.87752e-10
8.4299e-10
2.46899e-09
3.76698e-09
5.98146e-09
4.96955e-09
5.79241e-09
8.03933e-10
1.72916e-10
5.10193e-11
6.88207e-12
4.73153e-13
1.31518e-12
4.88268e-14
2.25141e-15
4.99644e-12
7.64147e-13
3.72454e-12
9.43233e-12
6.16602e-12
5.06744e-13
2.49602e-13
5.52565e-12
3.3905e-11
6.43751e-11
9.01362e-11
8.26777e-11
5.21508e-11
2.8237e-11
1.07799e-11
3.86998e-12
1.35268e-12
2.21929e-13
7.69994e-14
1.25176e-15
3.47696e-11
4.97902e-12
1.9849e-13
9.82427e-15
6.52141e-14
5.7956e-14
7.6566e-16
9.3266e-17
1.93065e-15
1.28682e-15
2.38964e-15
1.03566e-14
2.22022e-14
5.71483e-15
1.66488e-15
1.81508e-15
5.40595e-15
2.03709e-13
5.95358e-13
7.73863e-13
6.38155e-13
3.19453e-13
1.23647e-13
3.54249e-14
7.29882e-15
3.29595e-15
7.42905e-16
7.37275e-16
9.9132e-17
2.2071e-16
2.32216e-08
1.68242e-09
9.25087e-11
8.96964e-11
1.01791e-10
5.56183e-10
9.63152e-11
1.00493e-09
1.60497e-09
3.50681e-10
7.9009e-09
1.98365e-08
3.92936e-08
5.35347e-08
6.87236e-10
3.5617e-09
5.58934e-08
1.04514e-07
9.03133e-10
1.24325e-06
8.33257e-08
3.82287e-08
5.57922e-08
6.06378e-08
5.43641e-08
3.3421e-09
1.12756e-07
7.63849e-08
6.31051e-08
1.12001e-07
6.59296e-08
5.19185e-08
3.68269e-08
2.78206e-08
3.85113e-08
4.98483e-08
2.94445e-08
3.80517e-08
5.65698e-08
5.05919e-08
4.32176e-08
3.58294e-08
3.21974e-08
3.2818e-08
4.04768e-08
4.19536e-08
3.18566e-08
4.14943e-08
4.66491e-08
5.1289e-08
4.35416e-08
3.21634e-08
3.21865e-08
3.05342e-08
3.63314e-08
4.47832e-08
3.77207e-08
3.4893e-08
3.70077e-08
4.4001e-08
3.27159e-08
2.74732e-08
2.74458e-08
2.82014e-08
3.30387e-08
3.5635e-08
3.21696e-08
3.32896e-08
3.5906e-08
3.77299e-08
3.23534e-08
2.52189e-08
2.6862e-08
2.70167e-08
2.95117e-08
3.40763e-08
3.14021e-08
2.9016e-08
3.06107e-08
3.11801e-08
2.62346e-08
2.22866e-08
2.42535e-08
2.54305e-08
2.62716e-08
2.83285e-08
2.93859e-08
2.84612e-08
2.71195e-08
2.69592e-08
2.42482e-08
2.06171e-08
2.25288e-08
2.34206e-08
2.46407e-08
2.70292e-08
2.58007e-08
2.51014e-08
2.56475e-08
2.419e-08
2.05781e-08
1.88483e-08
2.09514e-08
2.20553e-08
2.21412e-08
2.36977e-08
2.44252e-08
2.34245e-08
2.2157e-08
2.12772e-08
1.86706e-08
1.75788e-08
1.9366e-08
2.03708e-08
2.10451e-08
2.22506e-08
2.14876e-08
2.1099e-08
2.07229e-08
1.91185e-08
1.65625e-08
1.64227e-08
1.81129e-08
1.91174e-08
1.94145e-08
2.01813e-08
2.00313e-08
1.93283e-08
1.85143e-08
1.72652e-08
1.5311e-08
1.54468e-08
1.68958e-08
1.78383e-08
1.82879e-08
1.87943e-08
1.82189e-08
1.76565e-08
1.70887e-08
1.56694e-08
1.41436e-08
1.46131e-08
1.58827e-08
1.67595e-08
1.7112e-08
1.74163e-08
1.69855e-08
1.63236e-08
1.56469e-08
1.43537e-08
1.34233e-08
1.38864e-08
1.50026e-08
1.57459e-08
1.6112e-08
1.63183e-08
1.58693e-08
1.5218e-08
1.45502e-08
1.33042e-08
1.27064e-08
1.32024e-08
1.42384e-08
1.48272e-08
1.52159e-08
1.52959e-08
1.5025e-08
1.42593e-08
1.36514e-08
1.22388e-08
7.49081e-09
6.68757e-09
8.25319e-09
7.46102e-09
8.4617e-09
7.17284e-09
7.53227e-09
5.47506e-09
5.17029e-09
3.24809e-09
8.82921e-14
5.21626e-13
9.90732e-13
4.53404e-12
8.20195e-12
1.64294e-11
2.222e-11
2.73417e-11
2.72785e-11
2.45412e-11
4.59085e-15
3.44343e-15
6.90933e-15
1.05179e-14
1.62612e-14
3.3933e-14
4.00759e-14
6.7291e-14
5.86384e-14
4.03924e-14
2.01981e-08
4.24975e-08
2.56012e-08
2.75787e-08
1.34586e-08
3.82032e-09
7.27486e-10
3.38019e-10
3.13955e-10
5.74557e-10
2.11108e-09
7.88455e-09
3.2372e-08
1.15116e-07
1.00582e-07
1.59892e-08
2.0165e-09
3.19759e-10
6.01811e-11
1.13442e-11
1.6521e-12
1.26727e-13
4.18742e-16
7.9684e-15
3.91271e-14
5.93314e-14
5.69878e-14
4.05891e-14
2.31965e-14
1.15564e-14
5.20803e-15
2.30158e-15
9.8844e-16
4.60373e-16
2.21563e-16
1.13554e-16
6.58404e-17
2.886e-17
2.55884e-17
2.06944e-17
9.77324e-09
4.00732e-08
4.36846e-08
1.62201e-07
1.50411e-07
4.28745e-09
7.48327e-07
8.50747e-07
9.38586e-09
9.21197e-09
6.31145e-08
9.89039e-08
1.39413e-07
1.37866e-07
1.20159e-07
9.69035e-08
7.1157e-08
4.6828e-08
2.74115e-08
1.38152e-08
5.63969e-09
1.811e-09
4.7339e-10
9.91525e-11
1.5294e-11
1.28349e-12
2.14804e-14
3.00074e-14
1.45498e-13
2.01903e-13
1.98498e-13
1.40954e-13
9.86439e-14
5.64875e-14
3.71452e-14
1.96263e-14
1.36982e-14
6.72025e-15
4.93407e-15
1.90392e-15
4.56169e-08
3.66927e-08
7.90351e-08
5.11454e-08
8.11845e-08
1.2467e-06
1.53305e-06
9.30342e-07
2.71506e-07
2.33378e-08
3.53995e-10
2.99184e-08
8.20714e-08
1.18117e-07
1.20862e-07
1.08942e-07
8.95355e-08
6.66825e-08
4.39904e-08
2.71558e-08
1.79702e-08
1.37192e-08
1.14411e-08
8.97938e-09
5.914e-09
2.91542e-09
1.02806e-09
2.47278e-10
4.08636e-11
4.18056e-12
1.61294e-13
2.72417e-14
1.03825e-13
1.79096e-13
2.36382e-13
1.9416e-13
1.96299e-13
1.20172e-13
1.17579e-13
4.89311e-14
5.24206e-07
1.41611e-07
1.191e-07
2.09273e-08
2.39713e-07
1.67702e-06
1.84043e-06
9.97412e-07
3.39908e-07
1.02752e-07
2.00828e-08
1.51971e-10
2.39041e-08
6.90013e-08
9.71875e-08
9.92137e-08
8.81231e-08
6.4969e-08
4.83752e-08
3.77225e-08
2.0052e-08
8.98838e-09
6.26319e-09
6.91736e-09
8.17234e-09
8.29086e-09
7.33976e-09
5.84177e-09
4.24718e-09
2.68425e-09
1.38986e-09
5.19451e-10
1.23254e-10
1.4924e-11
2.59461e-13
3.50013e-14
1.0917e-12
1.37682e-12
2.99134e-12
1.4895e-12
6.81749e-08
1.43024e-07
1.50118e-07
8.31205e-09
7.12605e-07
2.43772e-06
2.54694e-06
1.34561e-06
3.44398e-07
1.43646e-07
7.97967e-08
3.00998e-09
7.54978e-09
4.55001e-08
7.72478e-08
7.64087e-08
6.52453e-08
4.15457e-08
1.23185e-09
1.74772e-11
2.28363e-11
5.02895e-09
7.8479e-09
3.10121e-09
3.45593e-09
5.15702e-09
6.05598e-09
5.63762e-09
4.65967e-09
3.59403e-09
2.71669e-09
2.00421e-09
1.49327e-09
1.08941e-09
7.95047e-10
5.61675e-10
3.75521e-10
2.53501e-10
1.50273e-10
1.31867e-10
2.31234e-07
5.45293e-08
1.1815e-07
4.37044e-09
9.15566e-07
2.50537e-06
2.78326e-06
2.06445e-06
5.13455e-07
1.0134e-07
1.2424e-07
3.31118e-08
4.23526e-09
5.89022e-08
8.77021e-08
7.84012e-08
6.70387e-08
4.65541e-08
1.68033e-08
5.40243e-08
6.73313e-09
5.90187e-10
2.4314e-13
7.36709e-10
5.43549e-09
4.15255e-09
4.30993e-09
4.61475e-09
4.25584e-09
3.45943e-09
2.66305e-09
1.98128e-09
1.50355e-09
1.13154e-09
8.94752e-10
7.15453e-10
6.08333e-10
5.33342e-10
4.93037e-10
4.89549e-10
1.75602e-08
3.0156e-07
2.42722e-07
1.88866e-07
2.7439e-08
2.41402e-06
2.88303e-06
2.6608e-06
1.57303e-06
2.01516e-07
8.17321e-08
2.12326e-08
6.08667e-09
6.27199e-08
7.55844e-08
1.16727e-08
1.15314e-10
3.0786e-08
3.41429e-08
2.0162e-08
2.8767e-10
9.56199e-11
2.87852e-10
5.12653e-10
8.48477e-10
1.6413e-09
3.68556e-09
3.99386e-09
3.45567e-09
2.9157e-09
2.35152e-09
1.78857e-09
1.37563e-09
1.01774e-09
8.24042e-10
6.35279e-10
5.62788e-10
4.78303e-10
4.64436e-10
4.61194e-10
1.24466e-08
7.29868e-08
1.10116e-08
1.04803e-07
1.50724e-08
5.51216e-07
2.38124e-06
2.5627e-06
1.80345e-06
1.95806e-07
7.09309e-09
5.7702e-10
3.37255e-08
8.46891e-08
8.68516e-08
7.07968e-08
5.35566e-09
2.3637e-10
3.06678e-08
5.27903e-09
7.17839e-10
7.57744e-09
2.61422e-08
1.69056e-08
6.49613e-09
2.36056e-09
9.06546e-10
5.0057e-10
1.08463e-09
2.02907e-09
2.11858e-09
1.72762e-09
1.35841e-09
1.05375e-09
8.31494e-10
6.68004e-10
5.53717e-10
4.83407e-10
4.52335e-10
4.53721e-10
6.58522e-07
2.95625e-08
2.91963e-09
2.52361e-09
1.19331e-07
1.38074e-06
2.19041e-06
2.29221e-06
1.612e-06
1.91807e-07
1.11564e-10
5.49429e-08
7.64802e-08
8.48655e-08
7.59696e-08
7.331e-08
6.32691e-08
4.55657e-08
3.9472e-08
2.77637e-08
3.35038e-09
5.07207e-10
1.15116e-09
4.61871e-09
1.33272e-08
1.89178e-08
1.16371e-08
3.89431e-09
7.78023e-10
5.70768e-11
6.42425e-11
3.73635e-10
9.88058e-10
9.49202e-10
8.61384e-10
6.49652e-10
5.5091e-10
4.20002e-10
3.96303e-10
3.88916e-10
9.66626e-08
7.05834e-08
7.24697e-08
1.68723e-09
1.17357e-07
1.3639e-06
1.71272e-06
1.53899e-06
3.43274e-07
4.64464e-08
9.72237e-08
1.11897e-07
6.01192e-08
3.15435e-08
5.25849e-08
5.08575e-08
4.85019e-08
3.71731e-08
1.78756e-08
1.85181e-08
2.65225e-08
1.78921e-08
1.74811e-08
6.90709e-09
4.12349e-09
5.10088e-09
8.22492e-09
1.0922e-08
9.6381e-09
5.49778e-09
2.32499e-09
8.90299e-10
6.2185e-10
5.66029e-10
7.0324e-10
6.1644e-10
5.36184e-10
4.12057e-10
3.58936e-10
3.51707e-10
3.26511e-08
3.4475e-08
4.3312e-09
5.54012e-08
2.97043e-08
1.56625e-09
3.03273e-08
2.39021e-08
1.0774e-07
8.82387e-08
5.05026e-08
7.73681e-08
5.09951e-08
4.1061e-08
5.02584e-08
4.75476e-08
3.87973e-08
3.55172e-08
2.7764e-08
8.40512e-09
1.76939e-08
2.14493e-07
1.41991e-07
5.74151e-08
5.39981e-08
1.04446e-07
5.79941e-09
7.55216e-09
5.57388e-09
4.49417e-09
3.71948e-09
3.04607e-09
2.34136e-09
1.76108e-09
1.31081e-09
9.55495e-10
7.09807e-10
4.7379e-10
3.62238e-10
2.93784e-10
2.13056e-08
3.23463e-08
4.53749e-08
6.95391e-08
6.53375e-08
7.07484e-08
6.66367e-08
1.02753e-07
8.63892e-08
8.05745e-08
6.95404e-08
2.43084e-08
4.32341e-08
5.6698e-08
4.42691e-08
4.36606e-08
3.19079e-08
2.65357e-08
1.4279e-07
1.18565e-07
3.24423e-08
2.15097e-08
1.59424e-08
7.56381e-08
2.48341e-08
1.57709e-08
2.10699e-08
3.2794e-08
3.92738e-08
2.23036e-08
2.08946e-09
1.00923e-10
4.34038e-10
7.09824e-10
9.85749e-10
7.96458e-10
5.78949e-12
1.33355e-10
2.53288e-10
2.35824e-10
3.75209e-08
2.86781e-08
3.68989e-08
4.43095e-08
6.0602e-08
6.71741e-08
7.94963e-08
8.01559e-08
5.65059e-08
5.53933e-08
5.96925e-08
4.72895e-08
2.44079e-08
3.88926e-08
3.95555e-08
1.93586e-08
2.62996e-08
3.09887e-08
3.11491e-08
1.75584e-10
1.29519e-08
6.71642e-09
5.51107e-10
4.70524e-10
4.09439e-10
2.72684e-09
9.52109e-09
1.45675e-08
1.16724e-08
6.55051e-09
3.82739e-09
2.6488e-09
2.20819e-09
1.75914e-09
1.4646e-09
1.09903e-09
8.397e-10
5.53984e-10
3.65363e-10
2.10336e-10
3.84544e-08
2.92793e-08
3.33754e-08
3.79483e-08
4.896e-08
5.8391e-08
6.47928e-08
5.86326e-08
6.14083e-08
2.44124e-08
3.52948e-08
4.7886e-08
4.93516e-08
3.11685e-08
1.75701e-08
2.18202e-08
8.19998e-09
6.16339e-09
2.88552e-08
4.52009e-09
4.55764e-10
1.85119e-08
2.17608e-09
6.0396e-08
1.40849e-07
4.15918e-09
1.5119e-08
1.5059e-08
1.13019e-08
7.36695e-09
4.63013e-09
2.98944e-09
2.23204e-09
1.75146e-09
1.50453e-09
1.18792e-09
9.44736e-10
1.49078e-10
1.67028e-12
1.01466e-10
3.17341e-08
2.52362e-08
2.5256e-08
3.39546e-08
3.98464e-08
4.60869e-08
4.75863e-08
5.02884e-08
5.06952e-08
4.26853e-08
1.70842e-08
3.1466e-08
3.65492e-08
2.96245e-08
1.43865e-08
3.46695e-08
3.6655e-08
2.14974e-08
7.9369e-09
1.39047e-08
1.54298e-08
2.25453e-08
2.71631e-08
5.44246e-13
2.3346e-07
2.13366e-07
9.5027e-08
1.32356e-08
6.11024e-10
1.16617e-09
2.53444e-09
2.81214e-09
2.5433e-09
2.06725e-09
1.65756e-09
1.29687e-09
9.6433e-10
5.20296e-10
3.15843e-11
1.28736e-10
3.08581e-08
2.53861e-08
2.59299e-08
2.99731e-08
3.26861e-08
3.53476e-08
3.90486e-08
3.79999e-08
3.23716e-08
3.52204e-08
3.89368e-08
1.73584e-08
2.19486e-08
3.37425e-08
3.25744e-08
1.07072e-08
2.07396e-08
1.05228e-08
1.79311e-08
1.50553e-09
9.55304e-09
1.37924e-08
5.97289e-10
1.40151e-10
9.30186e-10
4.28845e-09
9.07748e-09
1.13894e-08
1.04412e-08
8.12646e-09
5.90165e-09
4.20085e-09
3.07358e-09
2.24596e-09
1.71041e-09
1.23811e-09
9.1476e-10
5.78547e-10
3.20259e-10
1.65388e-10
2.37789e-08
2.2333e-08
2.21262e-08
2.43418e-08
2.96669e-08
3.03598e-08
3.04856e-08
3.19285e-08
3.24054e-08
2.2301e-08
2.92619e-08
2.70082e-08
2.31611e-08
1.51425e-08
2.50198e-08
1.92389e-08
1.86055e-08
5.9415e-09
2.00702e-08
1.34684e-08
2.82463e-09
6.0558e-09
6.95671e-08
8.68323e-08
7.98327e-09
1.89951e-09
5.32311e-09
6.815e-09
6.49053e-09
5.68698e-09
4.77489e-09
3.86839e-09
3.0272e-09
2.38478e-09
1.79387e-09
1.34058e-09
9.13297e-10
3.91619e-10
2.64743e-10
2.4316e-10
2.30294e-08
2.11524e-08
2.06514e-08
2.20439e-08
2.27014e-08
2.55748e-08
2.68409e-08
2.44004e-08
2.67883e-08
2.60443e-08
2.09094e-08
2.34234e-08
2.5973e-08
1.99987e-08
1.57972e-08
2.16376e-08
2.47914e-08
1.55175e-08
9.98314e-09
1.27229e-08
1.59357e-08
1.68665e-08
1.42964e-08
1.04021e-08
8.37484e-09
8.79473e-09
9.15637e-09
8.61295e-09
7.53899e-09
6.22323e-09
4.9757e-09
3.83675e-09
2.95423e-09
2.19089e-09
1.65289e-09
1.1591e-09
8.39934e-10
5.17747e-10
3.71376e-10
2.90592e-10
1.8883e-08
1.81503e-08
1.78556e-08
1.86005e-08
2.05959e-08
2.03442e-08
2.09693e-08
2.29122e-08
2.07427e-08
2.09534e-08
2.33864e-08
2.03776e-08
1.80351e-08
2.23512e-08
2.24509e-08
1.75059e-08
1.65287e-08
1.94849e-08
1.97064e-08
1.65927e-08
1.16747e-08
6.8426e-09
7.58269e-09
1.09188e-08
1.25205e-08
1.20975e-08
1.05063e-08
8.50627e-09
6.65312e-09
5.15257e-09
3.99696e-09
3.15308e-09
2.44154e-09
1.91347e-09
1.3982e-09
1.04488e-09
6.93946e-10
5.04793e-10
3.83866e-10
3.67502e-10
1.74346e-08
1.67247e-08
1.60428e-08
1.61886e-08
1.664e-08
1.74637e-08
1.76342e-08
1.72075e-08
1.83791e-08
1.81133e-08
1.68861e-08
1.87202e-08
1.93472e-08
1.66515e-08
1.62639e-08
1.85292e-08
1.89479e-08
1.57403e-08
1.22057e-08
1.27541e-08
1.41655e-08
1.36652e-08
1.21652e-08
1.0518e-08
8.92402e-09
7.67047e-09
6.85972e-09
6.13689e-09
5.43289e-09
4.61238e-09
3.83729e-09
3.0469e-09
2.41444e-09
1.81215e-09
1.39343e-09
9.86639e-10
7.54639e-10
5.27097e-10
4.55652e-10
4.16647e-10
1.515e-08
1.45217e-08
1.39381e-08
1.38572e-08
1.43068e-08
1.42065e-08
1.44462e-08
1.49934e-08
1.47505e-08
1.53034e-08
1.60572e-08
1.55346e-08
1.56704e-08
1.69155e-08
1.68345e-08
1.55359e-08
1.55083e-08
1.63303e-08
1.5886e-08
1.41182e-08
1.22121e-08
1.04045e-08
9.4492e-09
9.61197e-09
9.70937e-09
9.15963e-09
8.15332e-09
6.89687e-09
5.64333e-09
4.48881e-09
3.50945e-09
2.71399e-09
2.07481e-09
1.58686e-09
1.19567e-09
9.15974e-10
7.02169e-10
5.70166e-10
5.05915e-10
4.81252e-10
1.37318e-08
1.30644e-08
1.23191e-08
1.18695e-08
1.1854e-08
1.18844e-08
1.18612e-08
1.20548e-08
1.2611e-08
1.28829e-08
1.30749e-08
1.39457e-08
1.45774e-08
1.43199e-08
1.45101e-08
1.51123e-08
1.52111e-08
1.44972e-08
1.32225e-08
1.2396e-08
1.22493e-08
1.18455e-08
1.0853e-08
9.5377e-09
8.26625e-09
7.00084e-09
5.92808e-09
4.96533e-09
4.19621e-09
3.44681e-09
2.85176e-09
2.25524e-09
1.82752e-09
1.3938e-09
1.13174e-09
8.53844e-10
7.32661e-10
5.80085e-10
5.56299e-10
5.09963e-10
1.23947e-08
1.16314e-08
1.08229e-08
1.02595e-08
1.0106e-08
9.94131e-09
9.99956e-09
1.03639e-08
1.07301e-08
1.13114e-08
1.18905e-08
1.21006e-08
1.24356e-08
1.29336e-08
1.29966e-08
1.2616e-08
1.22695e-08
1.21545e-08
1.1887e-08
1.11236e-08
1.01559e-08
9.13276e-09
8.14503e-09
7.31308e-09
6.75676e-09
6.1494e-09
5.45741e-09
4.62551e-09
3.8094e-09
2.97654e-09
2.29825e-09
1.67223e-09
1.23885e-09
8.45185e-10
6.44866e-10
4.3851e-10
3.88189e-10
2.92342e-10
3.23265e-10
2.81172e-10
1.13282e-08
1.057e-08
9.72856e-09
8.94909e-09
8.63236e-09
8.49759e-09
8.38712e-09
8.46157e-09
8.54577e-09
8.20051e-09
7.30871e-09
6.27027e-09
5.0874e-09
3.5859e-09
2.2456e-09
1.50553e-09
1.06008e-09
7.2475e-10
5.05695e-10
3.88023e-10
3.58794e-10
3.88112e-10
4.40191e-10
4.32198e-10
3.66242e-10
2.4858e-10
1.37787e-10
5.65599e-11
2.35304e-11
7.39128e-12
3.83102e-12
1.36411e-12
1.21222e-12
5.64497e-13
1.13215e-12
1.0107e-12
2.3365e-12
2.15825e-12
4.13136e-12
3.2378e-12
2.68153e-09
2.26847e-09
1.93007e-09
1.71035e-09
1.72452e-09
1.74051e-09
1.62924e-09
1.47308e-09
1.18368e-09
7.64036e-10
4.01054e-10
1.4952e-10
2.06264e-11
2.55452e-13
1.24113e-11
5.25105e-11
1.09002e-10
1.53106e-10
1.44585e-10
9.27193e-11
4.257e-11
1.53428e-11
4.57316e-12
1.27589e-12
4.48606e-13
2.82542e-13
1.28054e-13
4.83593e-14
2.95788e-14
7.97267e-14
1.38323e-13
1.97488e-13
2.21308e-13
2.10561e-13
2.0055e-13
1.5183e-13
1.46903e-13
9.42338e-14
1.00164e-13
4.98182e-14
2.18884e-11
2.00211e-11
2.05183e-11
2.23558e-11
2.7843e-11
3.28075e-11
3.25903e-11
2.99549e-11
2.43399e-11
1.45571e-11
5.57621e-12
9.95345e-13
3.45173e-14
5.86291e-13
4.01117e-12
1.03963e-11
1.63993e-11
1.82177e-11
1.48665e-11
9.23061e-12
4.73584e-12
2.01838e-12
6.5376e-13
1.4052e-13
1.25413e-14
9.40737e-17
4.21452e-15
1.13675e-14
1.67166e-14
1.52839e-14
1.64377e-14
1.23665e-14
1.27514e-14
8.91231e-15
9.01541e-15
5.99526e-15
5.93475e-15
3.58676e-15
3.30592e-15
1.55443e-15
3.16519e-14
2.06146e-14
2.88423e-14
5.27755e-14
8.76471e-14
1.07281e-13
1.19814e-13
1.28243e-13
9.29048e-14
3.58395e-14
5.67529e-15
1.11812e-15
2.89123e-14
1.49276e-13
3.13792e-13
4.09382e-13
3.82187e-13
2.49998e-13
1.06598e-13
2.76663e-14
3.39026e-15
1.07299e-16
3.60286e-16
1.41943e-15
2.17174e-15
2.02804e-15
1.55566e-15
1.28447e-15
1.07566e-15
9.50542e-16
7.21108e-16
5.59233e-16
3.51062e-16
2.4131e-16
1.42277e-16
8.8192e-17
5.88761e-17
2.82999e-17
2.89271e-17
2.03577e-17
)
;

boundaryField
{
    inlet
    {
        type            calculated;
        value           nonuniform List<scalar> 
20
(
1.493e-34
5.99307e-33
7.62672e-33
9.01601e-34
1.96533e-33
1.29256e-33
1.7309e-33
1.89149e-33
2.10263e-33
2.16326e-33
1.80814e-33
1.06263e-33
1.54606e-33
2.06831e-33
1.57501e-33
2.18922e-33
8.78417e-34
7.6059e-33
5.83298e-33
1.47219e-34
)
;
    }
    outlet
    {
        type            calculated;
        value           nonuniform List<scalar> 
27
(
2.23455e-33
1.88684e-33
1.58693e-33
1.26281e-33
6.41574e-34
2.4269e-34
1.08701e-36
3.04268e-36
1.75005e-34
9.08915e-34
1.39503e-33
1.83604e-33
2.12666e-33
2.46976e-33
2.62666e-33
2.14291e-33
8.30073e-35
8.26202e-37
3.46763e-43
3.30875e-39
4.65679e-39
7.78094e-41
5.59221e-37
7.42863e-35
2.55433e-33
2.61752e-33
2.42549e-33
)
;
    }
    lowerWall
    {
        type            fixedValue;
        value           uniform 0;
    }
    upperWall
    {
        type            fixedValue;
        value           uniform 0;
    }
    defaultFaces
    {
        type            empty;
    }
}


// ************************************************************************* //
