/*--------------------------------*- C++ -*----------------------------------*\
| =========                 |                                                 |
| \\      /  F ield         | OpenFOAM: The Open Source CFD Toolbox           |
|  \\    /   O peration     | Version:  2112                                  |
|   \\  /    A nd           | Website:  www.openfoam.com                      |
|    \\/     M anipulation  |                                                 |
\*---------------------------------------------------------------------------*/
FoamFile
{
    version     2.0;
    format      ascii;
    arch        "LSB;label=32;scalar=64";
    class       volScalarField;
    location    "0.24";
    object      p;
}
// * * * * * * * * * * * * * * * * * * * * * * * * * * * * * * * * * * * * * //

dimensions      [0 2 -2 0 0 0 0];

internalField   nonuniform List<scalar> 
1880
(
0.00325927
0.00312157
0.00302857
0.00298141
0.00295268
0.00293268
0.0029118
0.00289217
0.00287441
0.00286406
0.00284956
0.00283959
0.00283397
0.00283308
0.00283418
0.00283838
0.00284539
0.00285915
0.00287464
0.00290615
0.00294794
0.00300926
0.00308807
0.00318741
0.00330194
0.00344679
0.00361267
0.00379195
0.0040116
0.00423135
0.00307776
0.00304512
0.00300413
0.00296817
0.00293677
0.00291715
0.00289868
0.00288179
0.00286559
0.00285716
0.00284136
0.0028288
0.00282423
0.0028234
0.00282593
0.00282417
0.00283309
0.00284146
0.00286021
0.0028869
0.00292813
0.00298793
0.00305585
0.00315621
0.00324315
0.00339989
0.00349953
0.00371527
0.00384272
0.00401672
0.00304416
0.00302344
0.00299322
0.00296153
0.00293133
0.00291051
0.002893
0.00287469
0.00285923
0.00285025
0.00283601
0.00281999
0.00281496
0.00281392
0.00281346
0.00280904
0.00281486
0.00282694
0.00284267
0.00286663
0.00289967
0.00294602
0.00300497
0.00307444
0.00315643
0.00325055
0.00334676
0.00345278
0.00353372
0.00360313
0.0029858
0.00297534
0.0029587
0.00293777
0.0029134
0.00289522
0.00287911
0.00286027
0.00284521
0.00283718
0.0028243
0.00280612
0.00279972
0.00279728
0.00279586
0.00278787
0.00279099
0.00279949
0.0028102
0.00282987
0.00284977
0.0028901
0.00292723
0.00298182
0.00303648
0.00309792
0.00315822
0.00320854
0.00324854
0.00324701
0.00295678
0.0029503
0.00293926
0.00292326
0.00290218
0.00288529
0.00287006
0.00284996
0.0028346
0.00282557
0.00281383
0.00279317
0.00278551
0.00278017
0.00277636
0.00276534
0.00276451
0.0027688
0.00277505
0.00278634
0.00279907
0.00282412
0.00284739
0.00288098
0.00291097
0.00294311
0.00296682
0.00297929
0.00297076
0.00292975
0.00292946
0.00292437
0.00291601
0.0029034
0.00288527
0.00287049
0.00285655
0.00283648
0.0028204
0.00281087
0.00279885
0.00277729
0.00276699
0.00275996
0.00275273
0.00273966
0.00273315
0.00273378
0.00273318
0.0027368
0.00274006
0.00274991
0.00276187
0.00277106
0.00278378
0.00278581
0.00278293
0.00276262
0.00272102
0.00264823
0.00290888
0.00290488
0.00289834
0.0028879
0.00287176
0.00285824
0.00284512
0.00282469
0.00280786
0.00279697
0.00278434
0.00276109
0.00274885
0.00273889
0.00272846
0.00271203
0.00270063
0.00269618
0.00268885
0.00268464
0.0026777
0.00267565
0.00267252
0.00266547
0.00265776
0.00263782
0.00261114
0.00256488
0.00249665
0.00240267
0.00289241
0.00288889
0.00288314
0.00287372
0.00285854
0.00284569
0.00283281
0.00281216
0.00279435
0.0027824
0.0027682
0.00274376
0.0027286
0.00271656
0.00270216
0.00268263
0.00266584
0.00265599
0.00264291
0.002629
0.00261474
0.00259857
0.00258475
0.00256187
0.00253697
0.00250024
0.00245194
0.00238539
0.00229949
0.00218581
0.00287962
0.00287627
0.00287088
0.00286191
0.00284716
0.00283449
0.00282148
0.00280031
0.00278147
0.00276822
0.00275233
0.00272625
0.00270841
0.00269391
0.00267571
0.00265265
0.00263049
0.00261563
0.00259594
0.00257429
0.00255132
0.0025246
0.00249959
0.00246372
0.00242423
0.00237244
0.00230726
0.00222556
0.00212387
0.00199773
0.00287027
0.00286692
0.00286154
0.00285254
0.00283767
0.00282472
0.00281114
0.00278921
0.00276908
0.00275451
0.0027366
0.00270882
0.00268807
0.00267104
0.00264921
0.00262212
0.0025954
0.00257473
0.00254992
0.00252002
0.00248983
0.00245363
0.0024182
0.00237246
0.00231924
0.00225573
0.00217767
0.00208255
0.00197109
0.00183557
0.00286435
0.00286082
0.00285515
0.00284571
0.00283025
0.00281655
0.00280203
0.00277903
0.00275742
0.00274139
0.0027214
0.00269173
0.00266804
0.00264849
0.00262305
0.00259216
0.00256075
0.00253507
0.00250482
0.00246815
0.00243078
0.00238668
0.00234218
0.00228757
0.00222356
0.00215036
0.00206187
0.00195754
0.00183817
0.00169651
0.00286193
0.00285808
0.00285187
0.00284163
0.00282519
0.00281035
0.00279457
0.00277025
0.00274703
0.00272948
0.00270735
0.00267561
0.00264906
0.00262681
0.00259812
0.00256323
0.00252785
0.00249704
0.00246201
0.00241924
0.0023752
0.0023247
0.00227186
0.00221013
0.00213743
0.002056
0.00196051
0.00184878
0.00172383
0.0015785
0.00286326
0.00285884
0.00285167
0.00284003
0.00282199
0.00280546
0.00278796
0.00276206
0.00273719
0.00271815
0.00269386
0.00266003
0.00263066
0.00260588
0.00257408
0.00253553
0.00249628
0.00246093
0.00242133
0.00237337
0.00232339
0.00226736
0.00220773
0.0021399
0.00206056
0.00197287
0.00187188
0.00175527
0.0016262
0.00147871
0.00286917
0.00286413
0.00285584
0.00284256
0.00282263
0.00280414
0.00278471
0.00275704
0.00273035
0.0027096
0.00268296
0.00264668
0.00261458
0.00258713
0.00255239
0.00251016
0.00246736
0.00242771
0.00238387
0.00233142
0.00227616
0.00221557
0.00215036
0.00207748
0.00199342
0.00190069
0.00179596
0.00167602
0.00154404
0.00139577
0.0028795
0.00287295
0.00286226
0.00284588
0.00282292
0.00280168
0.00277987
0.00275038
0.00272226
0.00269991
0.00267094
0.00263244
0.00259815
0.00256867
0.00253141
0.00248604
0.00244006
0.00239665
0.0023489
0.00229257
0.00223283
0.0021685
0.00209901
0.00202223
0.00193475
0.0018385
0.00173112
0.00160939
0.00147577
0.00132725
0.00289891
0.00289078
0.00287704
0.0028566
0.00282984
0.00280531
0.0027808
0.00274958
0.00272015
0.00269598
0.00266426
0.00262347
0.00258711
0.00255529
0.00251493
0.00246596
0.00241686
0.00236987
0.00231841
0.00225857
0.00219498
0.00212751
0.00205481
0.00197502
0.00188535
0.00178676
0.00167778
0.00155531
0.00142086
0.00127267
0.00291977
0.00290738
0.00288781
0.00286169
0.00283103
0.00280377
0.00277735
0.00274514
0.00271467
0.00268841
0.00265388
0.00261115
0.00257329
0.00253932
0.00249658
0.0024453
0.00239387
0.00234361
0.0022884
0.00222566
0.00215926
0.00208979
0.00201528
0.00193387
0.00184328
0.00174375
0.00163414
0.00151181
0.00137755
0.00122994
0.00297332
0.00295043
0.00291689
0.00287935
0.00284214
0.00281119
0.00278246
0.00274923
0.00271708
0.00268766
0.00265009
0.00260629
0.00256747
0.00253114
0.00248569
0.00243248
0.00237948
0.0023262
0.00226714
0.00220044
0.00213123
0.00205972
0.00198392
0.00190155
0.00181082
0.00171113
0.0016015
0.00147986
0.00134623
0.00119991
0.00300227
0.00296717
0.00292298
0.00288051
0.0028419
0.00281063
0.00278076
0.00274677
0.00271362
0.00268198
0.0026422
0.00259761
0.00255744
0.00251887
0.00247211
0.0024179
0.00236163
0.00230213
0.00223751
0.00216917
0.00209953
0.00202887
0.00195426
0.00187326
0.0017845
0.00168639
0.00157781
0.00145763
0.0013248
0.00117893
0.00318209
0.00304176
0.00294493
0.00289111
0.00285489
0.00282292
0.00278969
0.00275269
0.00271687
0.00268243
0.00264251
0.00259938
0.00255784
0.00251566
0.0024676
0.00241445
0.00235807
0.00229693
0.0022305
0.00216065
0.00208914
0.00201689
0.00194143
0.00186059
0.00177233
0.00167493
0.00156701
0.00144806
0.00131692
0.00117373
0.00431944
0.00399693
0.00348604
0.00296482
0.00232316
0.00164037
0.000981281
-0.000152668
-0.00155469
-0.00341705
0.00409602
0.00365633
0.00295618
0.00247098
0.00187836
0.00117014
0.000428421
-0.000762265
-0.00203286
-0.00331619
0.0036023
0.00320395
0.00268897
0.00228178
0.0016465
0.00101858
0.000234217
-0.000659304
-0.00181541
-0.00271752
0.00323162
0.0028754
0.00236744
0.00187709
0.00135559
0.000666793
-5.00957e-05
-0.000904505
-0.00188666
-0.00267778
0.00285953
0.00253089
0.00207831
0.00166117
0.00116014
0.000548439
-0.000128302
-0.000881299
-0.00172226
-0.00240672
0.00255852
0.00224254
0.00185298
0.00139616
0.000942709
0.00034349
-0.000285013
-0.000956253
-0.00168374
-0.00230359
0.00228663
0.00199857
0.00162624
0.00121521
0.000785797
0.000257878
-0.000324529
-0.000928683
-0.00154756
-0.00211144
0.0020569
0.00178118
0.00144387
0.00104402
0.000637047
0.000150071
-0.000385973
-0.000936604
-0.00147368
-0.00197787
0.00185587
0.00160199
0.00128085
0.000911945
0.000528752
9.08884e-05
-0.000395571
-0.000892382
-0.00136626
-0.00182181
0.00168564
0.0014456
0.00114528
0.00079965
0.000438261
3.35681e-05
-0.000409333
-0.000861451
-0.00128464
-0.00169093
0.00154019
0.00131521
0.00103222
0.000710489
0.000371127
-3.5601e-07
-0.000402303
-0.000809994
-0.00119341
-0.00156207
0.00141825
0.0012047
0.000938949
0.00063808
0.000319577
-2.63246e-05
-0.000393352
-0.00076432
-0.00111436
-0.00144924
0.00131628
0.00111263
0.000863024
0.000581511
0.000281787
-4.00384e-05
-0.000375886
-0.000713896
-0.00103691
-0.00134543
0.00123262
0.00103693
0.000802027
0.000537451
0.000255438
-4.55928e-05
-0.000356241
-0.000667853
-0.000967629
-0.00125402
0.00116415
0.000974927
0.00075294
0.000503852
0.000237657
-4.47127e-05
-0.00033407
-0.00062365
-0.000904319
-0.00117298
0.00111059
0.000926697
0.000715795
0.000480094
0.000228047
-3.81471e-05
-0.000310725
-0.000583325
-0.000848432
-0.00110275
0.00106834
0.000888306
0.000686279
0.000462388
0.000222964
-2.92544e-05
-0.00028784
-0.000546933
-0.000799693
-0.00104284
0.00104021
0.000863624
0.00066834
0.00045357
0.000224171
-1.70275e-05
-0.000265162
-0.000514868
-0.00075886
-0.000993709
0.0010195
0.000845106
0.000655207
0.00044867
0.000228117
-4.07214e-06
-0.000243258
-0.000485371
-0.000723555
-0.000952695
0.00101748
0.000844972
0.000656988
0.000453314
0.000236075
7.52416e-06
-0.000227893
-0.000466823
-0.000702698
-0.000932224
-0.00570564
-0.00585335
-0.00602652
-0.0067132
-0.00891177
-0.0116236
-0.0131293
-0.0131287
-0.0116902
-0.00912758
-0.0059202
-0.00272408
-0.000108768
0.00165835
0.00259223
0.0029299
0.00287527
0.00263912
0.00233089
0.00201884
0.00173391
0.00148654
0.00127508
0.0010931
0.000935789
0.000799766
0.000682424
0.000581573
0.000495036
0.000420775
0.000356722
0.000301145
0.000252307
0.000208962
0.000169887
0.000134275
0.000101327
7.05031e-05
4.13627e-05
1.34337e-05
-0.00582878
-0.0059641
-0.006136
-0.00716915
-0.00985872
-0.0126698
-0.0140886
-0.014015
-0.0124234
-0.00976441
-0.00646361
-0.00314818
-0.000430284
0.00143908
0.00241421
0.00279747
0.00277357
0.00255763
0.00226568
0.00196681
0.00169266
0.00145387
0.00124915
0.00107282
0.000920105
0.000787745
0.000673534
0.000575289
0.000490776
0.000418033
0.00035506
0.000300192
0.00025181
0.000208726
0.000169836
0.000134313
0.000101445
7.06369e-05
4.1485e-05
1.35389e-05
-0.00539228
-0.00566357
-0.00641029
-0.00814275
-0.0113792
-0.0143006
-0.0156445
-0.0153902
-0.0136547
-0.0108493
-0.00746986
-0.00398972
-0.00105679
0.000948143
0.00203272
0.00248452
0.0025239
0.0023594
0.00210871
0.00184163
0.00159376
0.00137838
0.00119354
0.00103305
0.00089264
0.000769832
0.00066235
0.000568565
0.000486872
0.000415693
0.000353675
0.000299377
0.000251373
0.000208554
0.000169883
0.000134531
0.000101793
7.10719e-05
4.1895e-05
1.38135e-05
-0.0054054
-0.00556371
-0.00621503
-0.00864552
-0.0125614
-0.0159242
-0.017419
-0.0170052
-0.0149583
-0.0120667
-0.00861619
-0.00498659
-0.00186928
0.000291702
0.00149625
0.00202954
0.00214516
0.00205565
0.00187351
0.0016646
0.001463
0.00128109
0.00112054
0.000978234
0.000851378
0.000738503
0.000638539
0.000550542
0.000473398
0.000405907
0.000346602
0.000294257
0.000247631
0.000205829
0.000167933
0.000133187
0.000100927
7.05843e-05
4.16711e-05
1.37874e-05
-0.00518862
-0.00562333
-0.00637592
-0.00906931
-0.0132028
-0.0169436
-0.0185964
-0.0181286
-0.0156644
-0.0126645
-0.00932551
-0.00576863
-0.00263265
-0.000404945
0.00089987
0.00153553
0.00172995
0.00170533
0.00158513
0.00143509
0.00128853
0.00115347
0.00102688
0.000907834
0.00079787
0.000697844
0.00060779
0.000527311
0.000455788
0.000392402
0.000336101
0.000285989
0.000241243
0.000200933
0.000164262
0.000130552
9.91381e-05
6.94695e-05
4.10858e-05
1.36354e-05
-0.00524513
-0.00526589
-0.00614959
-0.00879613
-0.0130612
-0.0170854
-0.0188827
-0.0183576
-0.0156604
-0.0125624
-0.00939431
-0.00609491
-0.00317038
-0.00104762
0.000252958
0.000973709
0.00129251
0.0013735
0.00132706
0.0012282
0.00112363
0.00102452
0.000927694
0.000831937
0.000739198
0.000651978
0.000571749
0.00049898
0.000433559
0.00037503
0.0003227
0.000275822
0.000233564
0.000195153
0.000159901
0.000127223
9.66496e-05
6.77555e-05
4.01025e-05
1.33137e-05
-0.00541042
-0.00584374
-0.00569563
-0.00824289
-0.0120749
-0.0158315
-0.0176971
-0.0174013
-0.0149
-0.0118915
-0.00897672
-0.00606285
-0.00341115
-0.00143598
-0.000244451
0.000449895
0.000831062
0.00101975
0.0010732
0.0010402
0.000974718
0.000905572
0.000832611
0.000754828
0.00067617
0.000600812
0.000530577
0.000465935
0.00040701
0.000353547
0.000305147
0.00026136
0.000221653
0.000185507
0.000152335
0.000121587
9.26843e-05
6.51828e-05
3.86552e-05
1.28406e-05
-0.00518052
-0.00319218
-0.00504668
-0.00750629
-0.010845
-0.0141941
-0.0160325
-0.0159884
-0.0138152
-0.0110394
-0.00838101
-0.00583183
-0.00349357
-0.00167633
-0.00053104
0.000133539
0.000513903
0.000723547
0.00082542
0.000849575
0.00082952
0.000788215
0.000735563
0.00067543
0.000611044
0.0005465
0.000485091
0.000428548
0.000376713
0.000329507
0.000286481
0.00024714
0.000210948
0.000177428
0.00014615
0.000116772
8.89972e-05
6.25333e-05
3.70849e-05
1.23294e-05
-0.00429915
-0.0049151
-0.00578991
-0.00732488
-0.00994634
-0.0126887
-0.0143079
-0.0142161
-0.0123292
-0.00984399
-0.00746898
-0.00530038
-0.00338388
-0.00187994
-0.000843453
-0.000164464
0.000259851
0.000497223
0.000612475
0.000660496
0.000674019
0.000665838
0.000634417
0.000589042
0.000538638
0.000487829
0.000438088
0.000389883
0.000344324
0.000302174
0.000263052
0.00022692
0.00019366
0.000163034
0.000134633
0.000108029
8.27546e-05
5.84493e-05
3.47664e-05
1.15575e-05
-0.00385136
-0.0043046
-0.00511756
-0.00670273
-0.0087086
-0.0105789
-0.0116657
-0.0117148
-0.0103221
-0.00839066
-0.00650868
-0.00478465
-0.00324979
-0.00200167
-0.00109881
-0.000462284
-2.34581e-05
0.000254431
0.000404501
0.000476865
0.000508958
0.000511677
0.000498707
0.000480258
0.00045451
0.000419939
0.000380562
0.00034223
0.000306604
0.000272254
0.000239992
0.000209829
0.000181169
0.000153796
0.000127593
0.000102488
7.84085e-05
5.52338e-05
3.28225e-05
1.0922e-05
-0.00346414
-0.00410346
-0.00492742
-0.00609661
-0.00748133
-0.00871105
-0.00945988
-0.00944455
-0.00848002
-0.00708914
-0.00568208
-0.00435575
-0.00312656
-0.0020674
-0.00125336
-0.000665933
-0.00025206
2.62031e-05
0.000200696
0.00030367
0.000358217
0.000378045
0.000376887
0.000365112
0.000351444
0.000337953
0.000322941
0.000301885
0.000273873
0.000243194
0.000214065
0.000186002
0.000159887
0.000135629
0.000112849
9.12016e-05
7.03225e-05
4.9948e-05
2.98241e-05
9.9237e-06
-0.00312159
-0.0037953
-0.00449001
-0.00534636
-0.00635218
-0.00715031
-0.00754882
-0.00760901
-0.00707665
-0.00610263
-0.0050251
-0.00397432
-0.00296871
-0.00207378
-0.00136525
-0.000844418
-0.000460917
-0.000189759
-8.69595e-06
0.000117014
0.000208817
0.000253008
0.000254717
0.000251164
0.000256786
0.000259736
0.000252629
0.000239662
0.000224764
0.000207465
0.000188478
0.000168691
0.000148075
0.000127168
0.000106391
8.59771e-05
6.60644e-05
4.66761e-05
2.78051e-05
9.25894e-06
-0.00285659
-0.00346381
-0.00405867
-0.00473529
-0.00548589
-0.00604646
-0.00635375
-0.00634282
-0.00598833
-0.00530441
-0.00447261
-0.00362956
-0.00281046
-0.00206728
-0.00145696
-0.000980326
-0.000605132
-0.000322697
-0.000133769
-7.57338e-06
8.76068e-05
0.000152728
0.000195913
0.0002262
0.000239133
0.000235131
0.00022467
0.000212516
0.000195544
0.000177901
0.000159022
0.000140389
0.000122494
0.00010535
8.87862e-05
7.25901e-05
5.65366e-05
4.04892e-05
2.43112e-05
8.10096e-06
-0.00260766
-0.00313873
-0.0036631
-0.00420793
-0.00477017
-0.00519061
-0.00539331
-0.00538689
-0.00514684
-0.00464336
-0.0039964
-0.00332092
-0.00265591
-0.00203459
-0.0015006
-0.00107352
-0.000737173
-0.000473204
-0.000271784
-0.000126758
-2.87555e-05
3.46465e-05
6.65185e-05
8.08995e-05
0.000100806
0.000130438
0.000158151
0.000168562
0.00016605
0.0001562
0.000143298
0.000129257
0.000114547
9.93513e-05
8.38629e-05
6.82686e-05
5.27571e-05
3.74277e-05
2.23718e-05
7.45605e-06
-0.00239642
-0.00285335
-0.00330668
-0.00376122
-0.00420589
-0.00452624
-0.00468297
-0.00467468
-0.00448825
-0.00411834
-0.0036213
-0.00306701
-0.00251038
-0.00199134
-0.00153421
-0.00114928
-0.000836888
-0.000591371
-0.000397977
-0.000249131
-0.000126206
-3.61964e-05
6.42273e-06
2.72537e-05
4.81972e-05
7.54912e-05
9.49231e-05
0.000104483
0.000107191
0.000105229
9.99264e-05
9.25276e-05
8.38701e-05
7.43982e-05
6.43168e-05
5.36936e-05
4.25319e-05
3.08626e-05
1.86954e-05
6.24337e-06
-0.00220232
-0.0025964
-0.00299047
-0.00337175
-0.00372733
-0.0039907
-0.00411769
-0.00410984
-0.00396423
-0.00367715
-0.0032846
-0.0028407
-0.00238368
-0.00194303
-0.00154371
-0.00119763
-0.000906475
-0.000670421
-0.000486482
-0.000344757
-0.000236352
-0.000152168
-8.50128e-05
-2.78775e-05
2.19584e-05
5.73109e-05
7.93726e-05
9.14091e-05
9.62966e-05
9.62918e-05
9.29366e-05
8.71982e-05
7.96653e-05
7.07556e-05
6.08377e-05
5.02251e-05
3.92258e-05
2.80413e-05
1.68599e-05
5.62712e-06
-0.00202936
-0.00237364
-0.00271533
-0.00304457
-0.00334346
-0.00355689
-0.00366735
-0.00366965
-0.00355381
-0.00332201
-0.00300915
-0.00265019
-0.00226849
-0.00189159
-0.0015464
-0.00124352
-0.000985761
-0.000767573
-0.000583668
-0.000431738
-0.000308406
-0.000217971
-0.000148872
-9.90543e-05
-6.00053e-05
-2.64983e-05
5.17761e-07
2.04536e-05
3.42343e-05
4.29679e-05
4.76827e-05
4.92835e-05
4.84847e-05
4.57976e-05
4.15812e-05
3.60662e-05
2.94242e-05
2.18225e-05
1.34126e-05
4.49386e-06
-0.00187384
-0.00217718
-0.0024774
-0.00276374
-0.00301603
-0.00320252
-0.00329853
-0.0033013
-0.0032129
-0.00303308
-0.00277796
-0.00247807
-0.00216076
-0.00184468
-0.00154545
-0.00127029
-0.00102435
-0.000816723
-0.000647161
-0.000508225
-0.000395194
-0.000296283
-0.000213772
-0.000144347
-8.77958e-05
-4.34778e-05
-1.04556e-05
1.29973e-05
2.89362e-05
3.90949e-05
4.47757e-05
4.69266e-05
4.62859e-05
4.34341e-05
3.8887e-05
3.30685e-05
2.63976e-05
1.91722e-05
1.1664e-05
3.90455e-06
-0.00173512
-0.00200842
-0.00227456
-0.0025268
-0.00274871
-0.00291029
-0.00299675
-0.00300859
-0.00293805
-0.00278971
-0.00258381
-0.00233958
-0.00207181
-0.00179779
-0.00153474
-0.00129345
-0.0010777
-0.000887109
-0.000719389
-0.000575792
-0.000453437
-0.000352792
-0.000270085
-0.000205436
-0.000153038
-0.000109362
-7.37767e-05
-4.56635e-05
-2.38904e-05
-7.38967e-06
4.72628e-06
1.31756e-05
1.85676e-05
2.13902e-05
2.20526e-05
2.08556e-05
1.80684e-05
1.39575e-05
8.8015e-06
2.96521e-06
-0.00161254
-0.0018615
-0.00210081
-0.00232546
-0.002521
-0.00266585
-0.00274642
-0.00276116
-0.0027087
-0.00259124
-0.00242205
-0.0022174
-0.0019907
-0.00175636
-0.00152855
-0.00131278
-0.00110965
-0.000925892
-0.000767858
-0.000632212
-0.000516438
-0.000414031
-0.000325214
-0.000248952
-0.000184381
-0.000131168
-8.85178e-05
-5.5249e-05
-2.9891e-05
-1.10767e-05
2.37852e-06
1.14246e-05
1.68855e-05
1.94369e-05
1.96965e-05
1.81462e-05
1.52947e-05
1.15313e-05
7.20703e-06
2.42922e-06
-0.00150492
-0.00173597
-0.00195435
-0.00215698
-0.00233327
-0.00246433
-0.00253965
-0.00255955
-0.00252112
-0.00242563
-0.00228571
-0.0021155
-0.00192483
-0.00172279
-0.00152029
-0.00132583
-0.0011439
-0.000976773
-0.000824807
-0.000688805
-0.000567417
-0.000460603
-0.000369805
-0.000293819
-0.000230991
-0.000178443
-0.000134829
-9.91589e-05
-7.03049e-05
-4.72543e-05
-2.91524e-05
-1.5311e-05
-5.10249e-06
2.00977e-06
6.51564e-06
8.75257e-06
9.01368e-06
7.66858e-06
5.10535e-06
1.74244e-06
-0.00141152
-0.00162865
-0.00183092
-0.002016
-0.00217571
-0.00229629
-0.00236828
-0.00239137
-0.00236414
-0.0022882
-0.00217374
-0.0020314
-0.00186787
-0.00169263
-0.00151616
-0.00134365
-0.00117534
-0.0010141
-0.000865999
-0.000733807
-0.000615047
-0.000509269
-0.000415202
-0.00033329
-0.000262128
-0.000201435
-0.000150909
-0.000109768
-7.69472e-05
-5.12342e-05
-3.15143e-05
-1.68493e-05
-6.37168e-06
6.47842e-07
4.8989e-06
6.86758e-06
6.97118e-06
5.80108e-06
3.88095e-06
1.3343e-06
-0.00133155
-0.00153843
-0.00172844
-0.00190019
-0.00204761
-0.00215892
-0.00222749
-0.00225328
-0.00223569
-0.00217569
-0.00208097
-0.00196101
-0.00182272
-0.00167264
-0.00151676
-0.00135976
-0.00120455
-0.00105487
-0.000913833
-0.000782313
-0.000660779
-0.000549626
-0.00045109
-0.000366165
-0.000293712
-0.000232846
-0.00018192
-0.000139609
-0.000104697
-7.62595e-05
-5.34639e-05
-3.5601e-05
-2.19629e-05
-1.18563e-05
-4.33868e-06
3.11259e-07
2.64767e-06
3.2082e-06
2.50622e-06
9.0285e-07
-0.0012645
-0.00146401
-0.00164473
-0.00180554
-0.00194223
-0.00204611
-0.0021122
-0.00214027
-0.00212977
-0.00208237
-0.00200554
-0.00190641
-0.0017888
-0.0016578
-0.00152035
-0.0013802
-0.00123807
-0.00109551
-0.000956209
-0.000824027
-0.000700766
-0.000588065
-0.000487071
-0.000397818
-0.000320009
-0.000252568
-0.000195394
-0.000148178
-0.00011029
-7.95983e-05
-5.52481e-05
-3.63875e-05
-2.21689e-05
-1.19253e-05
-5.32622e-06
-1.04173e-06
1.40463e-06
2.32849e-06
1.9854e-06
7.63189e-07
-0.00121016
-0.00140529
-0.00158035
-0.0017332
-0.00186045
-0.00195742
-0.00202074
-0.00204965
-0.00204459
-0.0020083
-0.00194614
-0.00186356
-0.00176455
-0.00165323
-0.00153279
-0.00140461
-0.00127044
-0.00113325
-0.000996624
-0.000863908
-0.00073791
-0.000620856
-0.00051478
-0.000421266
-0.000340216
-0.000271306
-0.000213478
-0.000165198
-0.000124757
-9.20961e-05
-6.59501e-05
-4.53984e-05
-2.95653e-05
-1.77901e-05
-9.44218e-06
-3.8542e-06
-3.84207e-07
1.28472e-06
1.47859e-06
6.08668e-07
-0.00116585
-0.00135835
-0.00152992
-0.00167861
-0.00179983
-0.00189113
-0.00195167
-0.00198063
-0.0019793
-0.00195133
-0.001901
-0.00183256
-0.00175046
-0.00165678
-0.00155178
-0.00143567
-0.00130965
-0.00117597
-0.00103832
-0.000901348
-0.000769763
-0.000647426
-0.00053678
-0.000438884
-0.000354089
-0.000281705
-0.000220393
-0.000169276
-0.000127331
-9.3496e-05
-6.65561e-05
-4.55421e-05
-2.94704e-05
-1.75996e-05
-9.17837e-06
-3.53459e-06
-9.23491e-08
1.58457e-06
1.76871e-06
8.45639e-07
-0.00114779
-0.00133998
-0.00150866
-0.00165308
-0.00177046
-0.00185897
-0.00191784
-0.00194653
-0.0019467
-0.00192213
-0.00187693
-0.00181506
-0.00173993
-0.0016531
-0.00155446
-0.00144366
-0.00132146
-0.00119008
-0.00105332
-0.000916157
-0.000783699
-0.000659857
-0.000547233
-0.00044741
-0.000360814
-0.000286946
-0.00022481
-0.000173239
-0.000130851
-9.65198e-05
-6.90549e-05
-4.75311e-05
-3.09582e-05
-1.86524e-05
-9.82025e-06
-3.8949e-06
-2.48394e-07
1.52809e-06
1.77286e-06
9.05388e-07
)
;

boundaryField
{
    inlet
    {
        type            zeroGradient;
    }
    outlet
    {
        type            fixedValue;
        value           uniform 0;
    }
    lowerWall
    {
        type            zeroGradient;
    }
    upperWall
    {
        type            zeroGradient;
    }
    defaultFaces
    {
        type            empty;
    }
}


// ************************************************************************* //
