/*--------------------------------*- C++ -*----------------------------------*\
| =========                 |                                                 |
| \\      /  F ield         | OpenFOAM: The Open Source CFD Toolbox           |
|  \\    /   O peration     | Version:  2112                                  |
|   \\  /    A nd           | Website:  www.openfoam.com                      |
|    \\/     M anipulation  |                                                 |
\*---------------------------------------------------------------------------*/
FoamFile
{
    version     2.0;
    format      ascii;
    arch        "LSB;label=32;scalar=64";
    class       volScalarField;
    location    "0.17";
    object      nut;
}
// * * * * * * * * * * * * * * * * * * * * * * * * * * * * * * * * * * * * * //

dimensions      [0 2 -1 0 0 0 0];

internalField   nonuniform List<scalar> 
1880
(
3.59589e-11
5.07824e-12
2.69347e-13
5.16236e-14
7.37301e-14
5.38861e-14
3.27941e-14
9.95066e-15
1.83545e-14
9.08741e-14
8.77466e-14
1.3567e-14
1.80341e-13
3.65738e-13
6.56839e-13
6.96865e-13
5.73204e-13
5.6646e-13
5.91522e-13
7.73674e-13
7.90585e-13
8.59252e-13
2.71147e-12
1.12119e-12
3.51294e-11
6.66146e-12
4.45921e-10
2.15301e-11
2.45201e-09
1.3654e-08
4.88509e-09
6.13689e-09
1.1387e-09
6.02335e-11
1.16168e-10
7.49364e-11
1.26989e-11
7.36058e-13
2.86575e-11
7.07695e-12
9.56144e-12
4.26287e-12
2.43154e-11
3.91468e-12
1.06102e-10
3.09181e-11
8.62333e-11
1.53786e-11
2.10194e-11
1.737e-11
3.42539e-11
8.2463e-11
9.36207e-11
8.4432e-10
6.31537e-10
2.73483e-09
4.56105e-09
1.23478e-08
2.17605e-08
6.77925e-08
2.27655e-09
1.50322e-09
8.03809e-10
5.68795e-10
1.20041e-09
1.16029e-09
7.27014e-09
4.88346e-09
3.69787e-09
1.29991e-09
3.0095e-09
1.84452e-09
7.5123e-11
6.98861e-11
1.68533e-09
6.00822e-10
1.95308e-11
1.48788e-09
1.16318e-09
1.52108e-09
7.47624e-09
2.29863e-09
1.23005e-08
1.07115e-08
1.02402e-08
2.51737e-08
1.48925e-08
3.55052e-08
3.8106e-08
3.80255e-08
8.60683e-12
1.91622e-10
3.88474e-10
1.59016e-09
2.29641e-09
2.39129e-09
4.31489e-09
9.86714e-10
4.11982e-09
7.40523e-10
1.2797e-09
5.34652e-09
2.9223e-09
9.4009e-09
1.47146e-09
1.7218e-09
3.26867e-09
3.90838e-09
2.80296e-09
6.52645e-09
6.84383e-09
1.05247e-08
1.21964e-08
1.38318e-08
1.48647e-08
1.65238e-08
1.87393e-08
2.83725e-08
3.31256e-08
4.16528e-08
1.82766e-10
8.09085e-11
2.68126e-10
2.88742e-09
9.8759e-10
1.68081e-09
3.93442e-09
3.19518e-09
2.37994e-09
3.45973e-10
2.79202e-09
5.01466e-09
4.37508e-10
1.5043e-08
7.80843e-09
3.73893e-10
2.72137e-09
3.04245e-09
7.32255e-09
8.88123e-09
1.25416e-08
1.38743e-08
1.48464e-08
1.53284e-08
1.28294e-08
1.97658e-08
1.48733e-08
2.50047e-08
2.59272e-08
2.88102e-08
2.97523e-11
2.72058e-10
1.21532e-10
1.7114e-09
2.06933e-09
3.85634e-09
2.33867e-09
1.71241e-09
4.67193e-09
1.45185e-09
1.508e-09
6.32878e-09
2.43424e-09
9.19997e-09
3.64328e-09
3.84753e-11
9.78194e-10
3.24418e-09
4.38071e-09
6.654e-09
7.77732e-09
8.54563e-09
9.81102e-09
9.8391e-09
1.22832e-08
1.41593e-08
1.6064e-08
2.06539e-08
2.31225e-08
2.61731e-08
8.5735e-11
2.06804e-10
1.46413e-10
3.3613e-09
1.38317e-09
2.93571e-09
3.44158e-09
3.09755e-09
3.57065e-09
1.21074e-09
2.81666e-09
2.66087e-09
1.7331e-09
5.93039e-11
6.47852e-10
2.72062e-10
2.73533e-09
4.25688e-09
6.82866e-09
8.51456e-09
1.00602e-08
1.01176e-08
9.97671e-09
1.11777e-08
9.35071e-09
1.53783e-08
1.31954e-08
1.82383e-08
2.20066e-08
2.17078e-08
1.00397e-10
4.20178e-10
2.44685e-10
3.088e-09
2.00777e-09
3.91786e-09
2.8801e-09
2.3828e-09
4.74413e-09
1.98675e-09
2.268e-09
2.09475e-09
2.97595e-09
8.76134e-10
1.32352e-09
9.66423e-10
2.43966e-09
3.87333e-09
4.91667e-09
6.03139e-09
6.89795e-09
6.82831e-09
7.92118e-09
8.65024e-09
1.02181e-08
1.25328e-08
1.38691e-08
1.71491e-08
2.06568e-08
2.05137e-08
1.61037e-10
6.19955e-10
3.89258e-10
3.51784e-09
2.09083e-09
3.85684e-09
3.6808e-09
3.12076e-09
4.50059e-09
2.10549e-09
3.04592e-09
2.83418e-09
3.15753e-09
1.62554e-09
2.09928e-09
1.69488e-09
3.06419e-09
4.00144e-09
5.14418e-09
5.84888e-09
6.55116e-09
6.74304e-09
6.8185e-09
9.11109e-09
9.0125e-09
1.24065e-08
1.24489e-08
1.47466e-08
1.85382e-08
1.8045e-08
2.91534e-10
8.97218e-10
5.91613e-10
3.79056e-09
2.29102e-09
4.05206e-09
3.94541e-09
3.26689e-09
4.71086e-09
2.43663e-09
3.13856e-09
2.96211e-09
3.53125e-09
2.27558e-09
2.59133e-09
2.36949e-09
3.29822e-09
3.8973e-09
4.61438e-09
5.14327e-09
5.72928e-09
6.23729e-09
6.85112e-09
8.21377e-09
9.22211e-09
1.0866e-08
1.251e-08
1.43366e-08
1.69532e-08
1.71045e-08
4.40331e-10
1.18649e-09
8.13971e-10
3.96713e-09
2.50239e-09
4.33011e-09
3.89778e-09
3.17086e-09
5.00992e-09
2.78836e-09
3.03576e-09
2.85867e-09
3.87532e-09
2.83613e-09
2.98119e-09
2.84381e-09
3.60285e-09
4.06306e-09
4.51076e-09
5.02082e-09
5.29983e-09
6.25183e-09
6.57026e-09
8.31615e-09
8.85626e-09
1.03612e-08
1.14588e-08
1.28951e-08
1.52216e-08
1.5952e-08
9.1156e-11
1.27884e-09
9.57342e-10
4.25625e-09
2.43989e-09
4.15203e-09
4.28778e-09
3.66485e-09
4.6086e-09
2.79923e-09
3.57744e-09
3.35545e-09
3.73893e-09
3.15881e-09
3.34756e-09
3.38896e-09
3.88707e-09
4.15143e-09
4.52219e-09
4.95554e-09
5.20698e-09
6.14876e-09
6.56954e-09
7.70099e-09
8.65153e-09
9.62438e-09
1.10476e-08
1.23426e-08
1.38944e-08
1.50183e-08
4.78164e-10
1.22628e-09
1.0096e-09
3.96736e-09
2.65413e-09
4.47249e-09
3.79759e-09
3.26231e-09
4.97373e-09
3.16337e-09
3.07883e-09
2.85842e-09
4.11634e-09
3.62168e-09
3.55334e-09
3.59241e-09
4.10396e-09
4.41233e-09
4.52848e-09
5.03099e-09
5.11397e-09
6.13774e-09
6.49305e-09
7.52894e-09
8.34337e-09
9.23692e-09
1.03362e-08
1.15942e-08
1.28413e-08
1.41895e-08
3.17721e-10
7.59528e-10
9.18582e-10
4.33951e-09
2.29265e-09
3.85927e-09
4.29791e-09
3.81415e-09
4.55281e-09
3.14866e-09
3.54717e-09
3.26303e-09
3.8647e-09
3.7414e-09
3.87006e-09
4.14292e-09
4.30799e-09
4.42831e-09
4.58418e-09
4.981e-09
5.06874e-09
5.98057e-09
6.34983e-09
7.16287e-09
8.04343e-09
8.84061e-09
9.83811e-09
1.10564e-08
1.20501e-08
1.33357e-08
6.6875e-11
7.19273e-10
7.71409e-10
2.1109e-09
2.91867e-09
4.69432e-09
2.64532e-09
2.6249e-09
5.14458e-09
3.46456e-09
2.78357e-09
2.64564e-09
3.92349e-09
3.9059e-09
3.82656e-09
4.02633e-09
4.44422e-09
4.60869e-09
4.6199e-09
4.96262e-09
5.02058e-09
5.81537e-09
6.22046e-09
6.91607e-09
7.73816e-09
8.54263e-09
9.37208e-09
1.05694e-08
1.14087e-08
1.26892e-08
3.0406e-10
4.14639e-10
1.02966e-09
3.46243e-09
2.20083e-09
3.07932e-09
4.36164e-09
3.91136e-09
4.09961e-09
3.03126e-09
3.62298e-09
3.22354e-09
3.65448e-09
3.9964e-09
4.11305e-09
4.44919e-09
4.42524e-09
4.38843e-09
4.37616e-09
4.69642e-09
4.74456e-09
5.51968e-09
5.92394e-09
6.62878e-09
7.41637e-09
8.24355e-09
9.00873e-09
1.01342e-08
1.09426e-08
1.20482e-08
1.42463e-11
2.35407e-10
3.95408e-10
8.79017e-11
2.87146e-09
3.22052e-09
1.22355e-09
1.42936e-09
4.94318e-09
3.1045e-09
1.97817e-09
2.13379e-09
4.08291e-09
4.20085e-09
3.82284e-09
4.0468e-09
4.23564e-09
4.17231e-09
4.07069e-09
4.26254e-09
4.45324e-09
5.11395e-09
5.65982e-09
6.33831e-09
7.10116e-09
7.97197e-09
8.69102e-09
9.76695e-09
1.05343e-08
1.15841e-08
2.553e-09
1.99479e-09
1.60194e-09
1.51115e-09
2.36529e-09
2.52198e-09
7.21852e-09
4.59202e-09
4.22088e-09
2.73544e-09
4.26867e-09
2.32716e-09
7.15964e-10
3.46746e-14
4.1749e-09
1.40383e-08
1.68281e-08
5.12906e-09
3.02419e-09
1.35645e-10
9.40242e-13
1.59503e-10
4.82165e-10
1.69317e-09
2.16182e-09
4.15399e-09
4.80841e-09
6.72223e-09
7.54361e-09
9.30969e-09
4.95956e-09
5.89729e-09
9.74838e-10
3.73132e-11
8.59421e-11
4.42897e-11
5.94321e-12
1.08125e-11
3.57077e-11
1.7584e-12
3.0077e-12
3.30343e-14
2.19436e-11
7.63711e-11
1.55522e-10
1.74826e-10
1.17545e-10
4.86352e-11
2.34808e-11
8.14181e-12
4.07226e-12
2.40529e-12
1.30165e-12
8.80435e-13
1.15002e-12
3.36679e-13
3.34333e-13
9.25287e-14
1.86646e-14
1.99009e-14
3.52489e-11
4.91975e-12
2.52466e-13
4.4873e-14
5.91144e-14
3.22219e-14
3.1114e-14
2.54832e-14
1.71251e-14
2.83977e-14
6.27318e-14
8.55091e-15
2.07805e-13
5.25784e-13
7.24619e-13
5.97858e-13
2.9938e-13
1.05951e-13
3.31078e-14
1.15737e-14
4.54416e-15
3.00468e-15
1.32947e-15
1.97369e-15
1.22222e-15
1.28938e-15
1.05957e-15
8.45895e-16
1.26532e-16
4.21926e-17
7.16826e-10
1.19516e-09
1.27833e-08
2.58021e-11
2.05628e-09
2.61003e-09
6.27396e-11
3.94895e-10
8.89781e-10
2.09389e-09
3.16604e-08
6.95429e-09
1.17669e-07
6.92168e-08
5.52625e-07
5.44286e-08
1.47571e-07
3.26838e-07
1.32996e-06
1.16198e-07
7.85845e-08
3.37959e-08
2.12598e-08
6.91489e-08
2.53956e-07
1.08032e-07
3.6533e-08
7.43187e-08
1.05846e-06
3.82391e-08
5.70455e-08
4.87462e-08
2.88104e-08
4.99018e-08
5.05883e-08
6.21805e-10
5.58704e-08
8.71024e-08
7.2978e-08
1.7907e-08
4.3353e-08
3.59564e-08
3.29991e-08
4.62172e-08
3.91514e-08
2.62669e-08
5.20499e-08
6.6106e-08
5.3573e-08
1.52512e-08
4.52834e-08
3.54555e-08
3.06444e-08
3.47259e-08
3.89685e-08
3.26877e-08
3.20728e-08
5.93922e-08
5.41337e-08
2.53604e-08
3.39872e-08
2.91361e-08
2.79921e-08
3.14883e-08
3.14221e-08
3.0482e-08
3.77116e-08
4.28268e-08
3.74255e-08
2.81906e-08
3.22171e-08
2.58361e-08
2.66753e-08
2.90427e-08
3.08697e-08
3.11505e-08
3.02926e-08
4.01806e-08
3.34989e-08
2.40149e-08
2.57412e-08
2.37292e-08
2.41285e-08
2.53849e-08
2.69871e-08
2.87343e-08
2.89381e-08
2.98913e-08
2.9461e-08
2.48578e-08
2.27415e-08
2.05847e-08
2.28094e-08
2.44741e-08
2.491e-08
2.64153e-08
2.5782e-08
2.78699e-08
2.45672e-08
2.05882e-08
1.94097e-08
1.94571e-08
2.08206e-08
2.16611e-08
2.27837e-08
2.39986e-08
2.30194e-08
2.30252e-08
2.27316e-08
2.00249e-08
1.75044e-08
1.74176e-08
1.93137e-08
2.07837e-08
2.08504e-08
2.17265e-08
2.09958e-08
2.08455e-08
1.95502e-08
1.72166e-08
1.57364e-08
1.64079e-08
1.78629e-08
1.88623e-08
1.93307e-08
1.97919e-08
1.89176e-08
1.83518e-08
1.78471e-08
1.59939e-08
1.46844e-08
1.51387e-08
1.65448e-08
1.77844e-08
1.78516e-08
1.80538e-08
1.73436e-08
1.66441e-08
1.58537e-08
1.41573e-08
1.36532e-08
1.43184e-08
1.54603e-08
1.64127e-08
1.66222e-08
1.66209e-08
1.5914e-08
1.51311e-08
1.44234e-08
1.29444e-08
1.30125e-08
1.35404e-08
1.45186e-08
1.53598e-08
1.55143e-08
1.54028e-08
1.47828e-08
1.39821e-08
1.31428e-08
1.17485e-08
1.23951e-08
1.29187e-08
1.37453e-08
1.4381e-08
1.45646e-08
1.44251e-08
1.3893e-08
1.30685e-08
1.22435e-08
1.0868e-08
1.01799e-08
9.59234e-09
1.05486e-08
9.92329e-09
1.04925e-08
9.06234e-09
8.89324e-09
6.52414e-09
5.89598e-09
3.68348e-09
2.18621e-13
1.54345e-12
3.10368e-12
1.07017e-11
1.82831e-11
3.10308e-11
3.66974e-11
4.04803e-11
3.71223e-11
3.22068e-11
1.42603e-15
2.83947e-15
7.1509e-15
1.05603e-14
1.88358e-14
3.65321e-14
4.31221e-14
6.52213e-14
5.73757e-14
3.76423e-14
2.05952e-08
4.13366e-08
4.32567e-09
4.86635e-09
2.53629e-09
1.65518e-09
1.08624e-09
1.3038e-09
3.38619e-09
8.66422e-09
4.00612e-08
1.30207e-07
7.50504e-08
9.50476e-09
1.0833e-09
1.47831e-10
2.21343e-11
3.05534e-12
3.01164e-13
1.09574e-14
1.94057e-17
2.48345e-15
5.62991e-15
5.66206e-15
3.98245e-15
2.32776e-15
1.2595e-15
6.47879e-16
3.37415e-16
1.75857e-16
9.49371e-17
5.345e-17
3.03043e-17
1.86372e-17
1.15182e-17
7.32411e-18
5.41946e-18
3.07462e-18
3.24611e-18
1.26694e-18
2.51925e-07
6.61175e-08
1.45347e-07
1.75435e-07
1.64345e-07
7.26415e-09
1.27169e-07
1.57987e-08
8.7396e-08
1.29672e-07
1.48892e-07
1.46046e-07
1.32874e-07
1.10228e-07
8.36095e-08
5.59867e-08
3.08871e-08
1.30782e-08
4.19106e-09
1.06412e-09
2.26812e-10
4.14809e-11
6.34839e-12
7.49723e-13
5.77382e-14
1.29694e-15
2.25598e-17
6.13058e-16
1.01759e-15
9.85548e-16
8.20474e-16
5.49279e-16
4.35032e-16
2.78591e-16
2.66282e-16
1.48677e-16
2.03891e-16
9.99549e-17
1.62648e-16
7.61415e-17
5.7349e-09
7.95982e-09
1.59924e-07
1.29091e-07
2.04786e-09
2.12568e-06
1.64392e-06
2.9842e-08
2.56605e-09
2.682e-08
5.87724e-08
8.20753e-08
9.92256e-08
1.00274e-07
8.67354e-08
6.84738e-08
5.22186e-08
3.98631e-08
3.07369e-08
2.36268e-08
1.75049e-08
1.18014e-08
6.71895e-09
3.01245e-09
1.06728e-09
3.08293e-10
8.36904e-11
2.11237e-11
5.75763e-12
1.58294e-12
4.56887e-13
1.39489e-13
4.05838e-14
1.23672e-14
2.01198e-15
8.77508e-16
8.47653e-18
2.03444e-16
7.69291e-16
7.69942e-16
3.47287e-08
9.60631e-08
4.91765e-08
3.86426e-09
1.95671e-06
3.08555e-06
2.09137e-06
1.95082e-07
6.25262e-12
9.69746e-09
2.67504e-08
3.66947e-08
4.99757e-08
6.14259e-08
6.35507e-08
5.86036e-08
4.89207e-08
3.82218e-08
2.93341e-08
2.26297e-08
1.7589e-08
1.3723e-08
1.07305e-08
8.38996e-09
6.57731e-09
5.11674e-09
3.96461e-09
2.96792e-09
2.16863e-09
1.47322e-09
9.55642e-10
5.5259e-10
3.1606e-10
1.51723e-10
7.66719e-11
3.29442e-11
1.41842e-11
5.34525e-12
1.63982e-12
5.722e-13
2.56425e-07
3.11014e-08
3.48386e-08
9.2948e-09
2.2316e-06
3.53078e-06
2.66624e-06
4.84329e-07
3.04936e-09
9.50293e-09
5.2188e-08
6.69077e-08
6.99716e-08
6.6389e-08
5.12956e-08
3.90455e-08
3.37994e-08
3.12816e-08
2.67341e-08
2.11213e-08
1.63736e-08
1.26961e-08
9.88085e-09
7.72472e-09
6.10055e-09
4.84106e-09
3.89886e-09
3.13731e-09
2.57207e-09
2.09207e-09
1.74102e-09
1.42269e-09
1.20494e-09
9.82891e-10
8.45166e-10
6.92855e-10
6.03328e-10
4.99836e-10
4.42874e-10
3.85176e-10
1.74302e-10
4.3675e-08
8.92956e-11
1.31272e-08
2.57827e-06
3.79246e-06
3.28821e-06
1.3267e-06
3.73841e-09
5.45116e-09
5.656e-08
8.28166e-08
5.71111e-08
1.55173e-08
2.17929e-08
4.58189e-08
2.76314e-08
1.7774e-08
1.79601e-08
1.8553e-08
1.59224e-08
1.2484e-08
9.65021e-09
7.49851e-09
5.89661e-09
4.67021e-09
3.76189e-09
3.03318e-09
2.49133e-09
2.03025e-09
1.69199e-09
1.38274e-09
1.17381e-09
9.56974e-10
8.30971e-10
6.79711e-10
6.09145e-10
5.04321e-10
4.74099e-10
4.10962e-10
5.3243e-08
3.62399e-07
2.59214e-07
2.38628e-08
2.65065e-06
3.50113e-06
3.4196e-06
2.30585e-06
1.04377e-08
2.86435e-08
5.08451e-08
7.4898e-08
5.29222e-08
2.99784e-07
6.65605e-07
4.61495e-07
2.77278e-07
7.40714e-09
1.15811e-08
1.08199e-08
1.22399e-08
1.16369e-08
9.54952e-09
7.42893e-09
5.78948e-09
4.55522e-09
3.65757e-09
2.94825e-09
2.42572e-09
1.98176e-09
1.6546e-09
1.35237e-09
1.1471e-09
9.32096e-10
8.05525e-10
6.53595e-10
5.81663e-10
4.74307e-10
4.43567e-10
3.77594e-10
8.19349e-08
3.21762e-07
9.38496e-08
1.23841e-07
5.52203e-07
2.9004e-06
3.27877e-06
2.0563e-06
2.26598e-09
6.68744e-08
8.65284e-08
9.85456e-08
8.6993e-08
7.15621e-08
2.51999e-09
4.30112e-07
5.15957e-08
1.37308e-08
1.33429e-08
1.11278e-11
9.28967e-09
9.59943e-09
8.6933e-09
7.2743e-09
5.83049e-09
4.59507e-09
3.67213e-09
2.9558e-09
2.43635e-09
2.00319e-09
1.6796e-09
1.37885e-09
1.1704e-09
9.50166e-10
8.16649e-10
6.57638e-10
5.78756e-10
4.6365e-10
4.27559e-10
3.55877e-10
3.62229e-08
4.11593e-08
4.85118e-10
7.33516e-11
1.34406e-06
2.35704e-06
2.1807e-06
1.15547e-06
2.32507e-08
1.01595e-07
8.2559e-08
8.77995e-08
6.48436e-08
7.38848e-08
2.60263e-08
1.35192e-08
3.83405e-08
1.65748e-08
3.55894e-09
3.33313e-10
1.05136e-11
8.566e-11
3.9059e-09
5.9281e-09
5.50299e-09
4.65108e-09
3.82984e-09
3.08978e-09
2.51404e-09
2.03527e-09
1.68381e-09
1.36847e-09
1.15248e-09
9.28221e-10
7.90033e-10
6.28781e-10
5.44981e-10
4.25978e-10
3.84529e-10
3.09028e-10
5.18329e-08
5.27341e-08
1.00425e-07
4.65269e-08
6.35674e-09
1.24773e-06
1.29923e-07
1.12877e-07
1.64056e-07
1.26643e-07
7.12983e-08
4.18138e-08
4.89325e-08
4.5982e-08
1.01113e-08
5.74269e-10
1.12749e-09
7.54076e-09
2.59444e-08
3.69365e-08
2.18408e-08
7.06293e-09
2.18008e-09
1.46669e-09
2.08308e-09
2.72188e-09
2.71539e-09
2.41565e-09
2.10902e-09
1.8068e-09
1.55374e-09
1.29542e-09
1.10455e-09
8.94076e-10
7.5826e-10
5.98566e-10
5.10603e-10
3.87714e-10
3.39659e-10
2.58129e-10
4.35818e-09
6.62477e-08
1.52137e-08
2.6226e-08
7.38559e-08
7.9224e-08
1.3291e-07
9.98667e-08
6.88101e-08
8.19184e-08
8.95141e-08
5.48764e-08
4.82308e-08
4.27435e-09
3.14785e-08
2.13801e-08
2.16395e-08
2.70916e-08
1.4521e-08
1.1236e-08
1.22604e-08
1.39422e-08
1.38118e-08
1.14617e-08
8.61497e-09
6.2813e-09
4.62325e-09
3.43092e-09
2.62221e-09
2.04063e-09
1.64813e-09
1.32391e-09
1.10534e-09
8.82318e-10
7.38643e-10
5.74992e-10
4.80967e-10
3.52389e-10
2.96203e-10
2.0295e-10
6.30782e-08
4.18805e-08
6.06328e-08
5.61857e-08
8.36662e-08
1.09182e-07
1.02023e-07
7.46664e-08
5.70417e-08
7.53008e-08
8.35231e-08
4.57459e-08
3.49766e-08
1.82951e-08
5.51874e-08
6.25531e-09
4.68045e-07
3.59083e-07
2.8296e-07
2.28009e-07
4.11352e-08
1.02506e-10
4.27077e-09
5.75598e-09
5.25827e-09
4.4206e-09
3.53789e-09
2.78706e-09
2.24261e-09
1.8359e-09
1.53698e-09
1.26638e-09
1.06956e-09
8.57907e-10
7.16021e-10
5.53281e-10
4.5539e-10
3.22136e-10
2.57371e-10
1.29271e-10
2.25343e-08
4.84944e-08
4.29624e-08
5.60243e-08
7.0619e-08
7.92228e-08
8.90223e-08
6.39256e-08
2.89959e-08
1.14456e-08
5.51978e-08
2.10827e-08
7.6465e-10
3.43015e-07
5.57108e-08
1.29049e-08
4.71273e-10
3.40177e-09
3.15368e-08
2.18533e-08
7.89443e-09
5.80263e-09
6.57704e-09
7.16864e-09
6.64493e-09
5.41282e-09
4.1482e-09
3.13276e-09
2.41976e-09
1.90861e-09
1.56169e-09
1.2678e-09
1.06335e-09
8.48445e-10
7.04077e-10
5.39989e-10
4.3879e-10
3.01491e-10
2.289e-10
3.88835e-11
4.2371e-08
4.54694e-08
3.93651e-08
4.25037e-08
5.39559e-08
5.39198e-08
4.40543e-08
5.36791e-08
6.36856e-08
2.80287e-08
1.23506e-08
4.25786e-08
5.79351e-08
2.88667e-08
3.43716e-08
4.41021e-08
6.21064e-10
5.28581e-09
2.54351e-08
3.34011e-08
2.99103e-08
2.25677e-08
1.60786e-08
1.15239e-08
8.47651e-09
6.29063e-09
4.65501e-09
3.42293e-09
2.56817e-09
1.9808e-09
1.59049e-09
1.27917e-09
1.06485e-09
8.46413e-10
6.99678e-10
5.34753e-10
4.32055e-10
2.93291e-10
2.16878e-10
1.49107e-11
2.63019e-08
3.29141e-08
3.84749e-08
3.89204e-08
4.25465e-08
4.31475e-08
4.69497e-08
1.80661e-08
3.95827e-08
2.70119e-08
3.82291e-08
4.33662e-09
2.66582e-08
3.85773e-09
8.097e-09
2.12057e-08
1.89318e-07
4.68969e-07
3.65527e-07
2.02046e-07
9.07137e-08
1.84012e-08
1.17446e-08
1.0943e-08
8.01897e-09
5.70389e-09
4.05914e-09
2.95929e-09
2.27245e-09
1.81829e-09
1.51299e-09
1.24379e-09
1.04976e-09
8.40568e-10
6.98365e-10
5.3597e-10
4.3517e-10
2.98572e-10
2.25183e-10
3.23196e-11
2.93062e-08
3.11625e-08
2.91699e-08
3.3815e-08
3.8141e-08
3.27229e-08
3.78548e-08
3.57877e-08
2.57232e-08
2.49451e-08
3.80532e-08
1.30283e-08
1.39244e-08
4.50467e-09
2.05943e-08
2.18833e-08
2.60991e-09
2.17982e-09
8.61847e-09
1.97162e-08
2.20853e-08
1.90499e-08
1.50158e-08
1.14673e-08
8.64915e-09
6.41954e-09
4.72002e-09
3.45068e-09
2.58696e-09
1.99438e-09
1.60273e-09
1.28785e-09
1.07277e-09
8.54345e-10
7.10125e-10
5.47372e-10
4.49241e-10
3.16762e-10
2.50794e-10
1.15292e-10
2.19595e-08
2.41724e-08
2.56377e-08
2.6379e-08
2.91611e-08
3.3003e-08
2.76815e-08
2.69887e-08
3.47219e-08
2.85406e-08
1.67772e-08
2.60854e-08
3.46373e-08
2.83211e-08
2.07102e-08
2.987e-09
5.34322e-09
1.86379e-08
2.36702e-08
2.24217e-08
1.86088e-08
1.47667e-08
1.1657e-08
9.06656e-09
6.81393e-09
4.98036e-09
3.64756e-09
2.75683e-09
2.20351e-09
1.81224e-09
1.52826e-09
1.26205e-09
1.06833e-09
8.5978e-10
7.22049e-10
5.63115e-10
4.70415e-10
3.43953e-10
2.86806e-10
1.92989e-10
2.20663e-08
2.19154e-08
2.14327e-08
2.27512e-08
2.44356e-08
2.27558e-08
2.50067e-08
2.46729e-08
2.02079e-08
2.46668e-08
2.83959e-08
2.09828e-08
1.2424e-08
2.10328e-08
2.62417e-08
2.39308e-08
1.95638e-08
1.69431e-08
1.67377e-08
1.60659e-08
1.4785e-08
1.30988e-08
1.10816e-08
8.97366e-09
7.03439e-09
5.35664e-09
4.05376e-09
3.07672e-09
2.41589e-09
1.93169e-09
1.59321e-09
1.29766e-09
1.09273e-09
8.79287e-10
7.43145e-10
5.85465e-10
4.98038e-10
3.77107e-10
3.2812e-10
2.47412e-10
1.77591e-08
1.78761e-08
1.78035e-08
1.81842e-08
1.99406e-08
2.06908e-08
1.9391e-08
1.98726e-08
2.19072e-08
2.01208e-08
1.81414e-08
2.12492e-08
2.18299e-08
2.00281e-08
1.69077e-08
1.27541e-08
1.41593e-08
1.77735e-08
1.84001e-08
1.68519e-08
1.43891e-08
1.17596e-08
9.35517e-09
7.29202e-09
5.6068e-09
4.29204e-09
3.36179e-09
2.69985e-09
2.24415e-09
1.86601e-09
1.57586e-09
1.29982e-09
1.1042e-09
8.95431e-10
7.6464e-10
6.0996e-10
5.28395e-10
4.12606e-10
3.70679e-10
2.9639e-10
1.65811e-08
1.58772e-08
1.5317e-08
1.53714e-08
1.60906e-08
1.59136e-08
1.64925e-08
1.66036e-08
1.60533e-08
1.73534e-08
1.86974e-08
1.74782e-08
1.49468e-08
1.57778e-08
1.79487e-08
1.77025e-08
1.53971e-08
1.34218e-08
1.22305e-08
1.12523e-08
1.02923e-08
9.1822e-09
7.91723e-09
6.58152e-09
5.3451e-09
4.26774e-09
3.44392e-09
2.78981e-09
2.31309e-09
1.9083e-09
1.60547e-09
1.32182e-09
1.1253e-09
9.16124e-10
7.8905e-10
6.36175e-10
5.59832e-10
4.48031e-10
4.11846e-10
3.41231e-10
1.38664e-08
1.33166e-08
1.27135e-08
1.24245e-08
1.31479e-08
1.35094e-08
1.33564e-08
1.39749e-08
1.49024e-08
1.52178e-08
1.50551e-08
1.60695e-08
1.66837e-08
1.57502e-08
1.48704e-08
1.39378e-08
1.30225e-08
1.29256e-08
1.28406e-08
1.20002e-08
1.06403e-08
9.06337e-09
7.50002e-09
6.08914e-09
4.92989e-09
4.00155e-09
3.30907e-09
2.73864e-09
2.30269e-09
1.9131e-09
1.6179e-09
1.33683e-09
1.1433e-09
9.35592e-10
8.12636e-10
6.61554e-10
5.89909e-10
4.81094e-10
4.49587e-10
3.8103e-10
1.23929e-08
1.16296e-08
1.07935e-08
1.0317e-08
1.04937e-08
1.06453e-08
1.09586e-08
1.15289e-08
1.20788e-08
1.29757e-08
1.38176e-08
1.40332e-08
1.39419e-08
1.39445e-08
1.41537e-08
1.42257e-08
1.36685e-08
1.24541e-08
1.11021e-08
9.85102e-09
8.66741e-09
7.54355e-09
6.49226e-09
5.50983e-09
4.65348e-09
3.89612e-09
3.28312e-09
2.73754e-09
2.31095e-09
1.92155e-09
1.62923e-09
1.34836e-09
1.15755e-09
9.50583e-10
8.32217e-10
6.81916e-10
6.15612e-10
5.08005e-10
4.82189e-10
4.13411e-10
1.08051e-08
9.96504e-09
9.08361e-09
8.43905e-09
8.51496e-09
8.81535e-09
9.07556e-09
9.75468e-09
1.07392e-08
1.16589e-08
1.23145e-08
1.28355e-08
1.34728e-08
1.37481e-08
1.35245e-08
1.3005e-08
1.23132e-08
1.15119e-08
1.06224e-08
9.64385e-09
8.57427e-09
7.45469e-09
6.37191e-09
5.37724e-09
4.52274e-09
3.77785e-09
3.17412e-09
2.63715e-09
2.22119e-09
1.83537e-09
1.55331e-09
1.27409e-09
1.09212e-09
8.82788e-10
7.79039e-10
6.19119e-10
5.73672e-10
4.53174e-10
4.55471e-10
3.70314e-10
9.81369e-09
8.89856e-09
7.93704e-09
7.20034e-09
7.01882e-09
7.18645e-09
7.43084e-09
7.8601e-09
8.34091e-09
8.75031e-09
8.975e-09
9.00856e-09
8.97831e-09
8.94715e-09
8.8391e-09
8.57736e-09
8.14558e-09
7.51151e-09
6.67245e-09
5.71076e-09
4.73878e-09
3.83093e-09
3.01707e-09
2.30602e-09
1.70367e-09
1.19888e-09
8.11752e-10
5.00001e-10
3.04138e-10
1.53067e-10
8.30463e-11
3.31181e-11
1.73203e-11
5.49297e-12
4.24653e-12
1.23596e-12
2.0743e-12
9.11941e-13
2.53278e-12
1.70189e-12
2.91086e-09
2.2923e-09
1.83576e-09
1.53659e-09
1.44856e-09
1.38199e-09
1.15269e-09
8.76825e-10
6.20735e-10
3.58923e-10
1.49185e-10
4.3423e-11
1.07848e-11
3.6206e-12
2.01835e-12
1.29044e-12
7.69252e-13
4.13699e-13
1.9009e-13
9.06729e-14
8.33427e-14
1.32325e-13
2.06458e-13
2.43132e-13
2.51643e-13
2.02916e-13
1.60431e-13
1.09667e-13
6.60523e-14
4.43549e-14
1.93971e-14
1.1924e-14
3.77991e-15
2.01855e-15
1.12502e-16
2.3296e-16
1.25822e-16
3.96973e-16
2.07698e-15
1.89289e-15
2.61057e-11
2.12501e-11
1.97372e-11
1.84712e-11
1.89804e-11
1.87684e-11
1.37803e-11
7.78498e-12
3.58031e-12
7.98617e-13
1.2142e-14
3.03062e-13
1.65933e-12
3.24922e-12
4.20661e-12
4.0969e-12
3.14194e-12
2.0256e-12
1.16587e-12
6.09328e-13
2.88982e-13
1.23422e-13
4.81739e-14
1.66151e-14
5.34346e-15
1.32246e-15
2.99524e-16
3.1711e-17
8.08092e-19
3.96662e-19
1.15788e-17
1.7408e-17
4.38132e-17
4.28813e-17
7.78775e-17
5.20894e-17
1.13629e-16
6.13117e-17
1.31781e-16
7.12478e-17
2.7009e-14
2.01241e-14
2.24903e-14
2.30386e-14
2.64537e-14
2.56224e-14
1.38868e-14
4.3644e-15
2.96308e-16
8.22122e-16
1.66361e-14
5.41695e-14
8.15597e-14
8.31759e-14
6.5058e-14
3.89406e-14
1.76754e-14
6.19891e-15
1.68632e-15
3.17877e-16
2.7246e-17
4.85196e-20
4.4037e-18
2.06471e-17
3.63789e-17
4.36629e-17
4.41014e-17
3.91758e-17
3.22827e-17
2.56538e-17
1.93336e-17
1.45156e-17
1.09864e-17
8.02415e-18
6.17131e-18
4.5303e-18
3.99527e-18
2.4043e-18
3.00678e-18
1.27856e-18
)
;

boundaryField
{
    inlet
    {
        type            calculated;
        value           nonuniform List<scalar> 
20
(
1.41881e-34
5.03048e-33
5.18943e-33
7.23805e-35
1.63194e-34
3.09333e-36
2.0191e-36
2.53753e-37
6.98776e-37
3.50112e-36
2.59771e-35
7.81302e-35
4.72962e-35
3.94607e-35
2.41898e-35
3.7203e-34
1.43167e-34
5.88805e-33
5.21636e-33
1.41566e-34
)
;
    }
    outlet
    {
        type            calculated;
        value           nonuniform List<scalar> 
27
(
1.86711e-33
1.60137e-33
1.278e-33
7.38679e-34
1.28902e-34
5.30751e-36
7.32141e-40
2.74559e-36
8.47735e-35
5.95216e-34
1.1834e-33
1.51813e-33
1.77942e-33
2.0021e-33
2.18913e-33
2.31341e-33
3.50215e-34
3.63825e-36
2.52202e-38
3.24657e-42
3.34858e-43
1.94275e-38
2.92335e-36
2.94663e-34
2.38859e-33
2.26981e-33
2.08868e-33
)
;
    }
    lowerWall
    {
        type            fixedValue;
        value           uniform 0;
    }
    upperWall
    {
        type            fixedValue;
        value           uniform 0;
    }
    defaultFaces
    {
        type            empty;
    }
}


// ************************************************************************* //
