/*--------------------------------*- C++ -*----------------------------------*\
| =========                 |                                                 |
| \\      /  F ield         | OpenFOAM: The Open Source CFD Toolbox           |
|  \\    /   O peration     | Version:  2112                                  |
|   \\  /    A nd           | Website:  www.openfoam.com                      |
|    \\/     M anipulation  |                                                 |
\*---------------------------------------------------------------------------*/
FoamFile
{
    version     2.0;
    format      ascii;
    arch        "LSB;label=32;scalar=64";
    class       volScalarField;
    location    "0.17";
    object      p;
}
// * * * * * * * * * * * * * * * * * * * * * * * * * * * * * * * * * * * * * //

dimensions      [0 2 -2 0 0 0 0];

internalField   nonuniform List<scalar> 
1880
(
0.00353109
0.00339171
0.00329715
0.00325183
0.00322471
0.00319909
0.00317964
0.00316307
0.00314052
0.00312189
0.00311241
0.00310542
0.00309011
0.00308031
0.0030755
0.00308621
0.00309844
0.00312645
0.00315731
0.00320327
0.00325645
0.00332481
0.00340512
0.00350908
0.00362816
0.0037863
0.00396329
0.0042085
0.00444741
0.00483261
0.00334991
0.00331539
0.00327261
0.00323866
0.00320968
0.00318188
0.0031663
0.00315615
0.00313438
0.00311313
0.00310345
0.00309902
0.00308328
0.0030727
0.00306808
0.00308005
0.00309247
0.00311782
0.0031477
0.00318771
0.00324063
0.00329766
0.00338062
0.003464
0.00358343
0.00371345
0.00386328
0.00407087
0.00420074
0.0045306
0.00331678
0.00329431
0.00326141
0.00323257
0.00320445
0.00317503
0.00316013
0.00315233
0.00313071
0.0031068
0.00309704
0.00309426
0.00308217
0.00307109
0.00306818
0.00307623
0.00308791
0.00310454
0.00313066
0.00316183
0.00320681
0.00325463
0.00331912
0.00339159
0.00347813
0.00357919
0.00368757
0.00380233
0.00390962
0.00398087
0.00325899
0.00324669
0.00322671
0.00320935
0.0031878
0.00315972
0.00314491
0.00313926
0.00311974
0.00309598
0.00308571
0.00308322
0.00307142
0.0030592
0.00305492
0.00306039
0.00306951
0.00308095
0.00310142
0.00312445
0.0031605
0.00319547
0.00324619
0.00329729
0.00335954
0.00342985
0.00348658
0.00356002
0.00358741
0.00359636
0.00323043
0.00322228
0.00320758
0.00319551
0.00317756
0.00315048
0.0031354
0.00313021
0.00311135
0.00308704
0.00307596
0.00307274
0.00306102
0.00304702
0.00304139
0.00304261
0.00304922
0.003053
0.00306793
0.00308058
0.00310691
0.00312872
0.00316309
0.00319462
0.0032322
0.00326753
0.00329353
0.00331267
0.00329788
0.00325981
0.0032035
0.00319683
0.00318477
0.00317612
0.00316165
0.00313663
0.00312201
0.00311709
0.00309869
0.00307446
0.00306276
0.00305864
0.00304576
0.00302993
0.00302158
0.00301925
0.00302115
0.00301947
0.00302633
0.00303162
0.00304522
0.00305725
0.00307253
0.00308867
0.00310024
0.00310978
0.00310451
0.00308506
0.00304336
0.00296259
0.0031833
0.00317786
0.00316767
0.00316127
0.00314903
0.00312537
0.00311102
0.00310592
0.00308733
0.00306261
0.00304991
0.00304432
0.00302988
0.00301163
0.00300051
0.0029939
0.00299131
0.00298303
0.00298293
0.00297886
0.00298223
0.0029818
0.00298186
0.00298097
0.0029717
0.00295768
0.00292767
0.0028808
0.00281074
0.00270965
0.00316723
0.00316231
0.00315301
0.00314767
0.00313651
0.00311359
0.00309938
0.00309395
0.00307483
0.00304935
0.0030355
0.00302832
0.00301187
0.00299111
0.00297662
0.0029661
0.00295823
0.00294454
0.0029364
0.0029252
0.00291698
0.00290683
0.00289166
0.00287571
0.00284955
0.00281351
0.00276677
0.00269524
0.0026083
0.00248956
0.00315482
0.00315013
0.00314124
0.00313642
0.00312575
0.00310308
0.00308873
0.00308274
0.00306284
0.00303632
0.0030211
0.00301207
0.00299343
0.00296987
0.00295197
0.00293738
0.0029245
0.00290517
0.00288992
0.0028711
0.00285309
0.00283295
0.00280474
0.00277585
0.00273425
0.00268265
0.00261965
0.0025324
0.00242966
0.00229995
0.00314584
0.00314118
0.00313234
0.00312753
0.00311681
0.00309389
0.00307903
0.00307221
0.00305127
0.0030234
0.00300655
0.00299551
0.00297448
0.00294807
0.00292665
0.00290824
0.00289033
0.00286597
0.00284374
0.00281816
0.00279118
0.00276173
0.00272314
0.00268175
0.0026293
0.00256326
0.00248847
0.00238922
0.0022744
0.002138
0.00314025
0.00313545
0.00312634
0.00312111
0.00310984
0.00308618
0.00307043
0.00306251
0.00304031
0.00301086
0.00299223
0.00297905
0.00295558
0.00292628
0.0029014
0.00287929
0.00285667
0.00282757
0.00279905
0.00276723
0.00273237
0.00269481
0.00264706
0.00259602
0.0025335
0.00245733
0.00237224
0.00226466
0.0021414
0.00199983
0.00313812
0.00313303
0.00312336
0.00311736
0.00310515
0.00308038
0.00306342
0.00305419
0.00303058
0.00299934
0.00297875
0.00296334
0.0029374
0.00290523
0.00287698
0.00285138
0.00282433
0.00279087
0.00275668
0.00271919
0.00267773
0.00263275
0.002578
0.00251823
0.00244813
0.00236379
0.00227071
0.00215747
0.00202794
0.00188346
0.00313972
0.00313408
0.00312339
0.00311598
0.00310209
0.00307566
0.00305714
0.0030464
0.00302123
0.00298808
0.00296548
0.00294784
0.00291945
0.00288448
0.00285306
0.00282428
0.00279325
0.00275593
0.00271681
0.00267448
0.00262743
0.00257639
0.0025157
0.00244921
0.00237271
0.00228251
0.00218316
0.00206585
0.0019328
0.00178596
0.00314582
0.00313957
0.0031277
0.00311868
0.00310287
0.00307445
0.00305422
0.00304185
0.00301477
0.00297941
0.00295456
0.00293451
0.00290356
0.00286573
0.00283126
0.00279941
0.00276476
0.00272393
0.00268057
0.00263401
0.00258238
0.00252614
0.0024608
0.0023888
0.00230735
0.00221283
0.00210881
0.00198887
0.0018536
0.00170552
0.00315634
0.00314854
0.0031342
0.00312209
0.00310303
0.00307194
0.00304982
0.00303566
0.0030066
0.00296904
0.00294214
0.00292002
0.00288675
0.00284637
0.00280941
0.00277507
0.00273746
0.00269387
0.00264719
0.00259735
0.0025422
0.00248195
0.00241302
0.0023369
0.00225162
0.00215413
0.00204679
0.00192512
0.00178891
0.00164027
0.00317585
0.0031664
0.00314905
0.00313295
0.00310959
0.00307539
0.00305153
0.00303557
0.00300421
0.00296431
0.00293543
0.00291114
0.00287548
0.00283239
0.00279205
0.00275479
0.00271422
0.00266796
0.00261846
0.00256589
0.00250797
0.00244449
0.00237282
0.0022936
0.00220551
0.00210595
0.00199635
0.00187371
0.00173732
0.00158869
0.00319668
0.00318292
0.00315997
0.00313804
0.00311031
0.00307405
0.00304918
0.00303119
0.00299739
0.00295564
0.002925
0.00289803
0.00285906
0.00281297
0.00277083
0.0027323
0.0026904
0.00264303
0.00259212
0.0025381
0.00247861
0.00241308
0.00233966
0.00225838
0.00216836
0.00206756
0.00195663
0.00183362
0.00169762
0.00154946
0.00324996
0.0032258
0.00318952
0.00315555
0.00312057
0.00308219
0.00305624
0.00303492
0.00299754
0.00295403
0.00292217
0.00289287
0.00285135
0.00280341
0.00275933
0.00271809
0.00267433
0.00262414
0.0025719
0.00251678
0.00245609
0.00238905
0.00231444
0.00223172
0.00214042
0.00203885
0.0019272
0.00180413
0.00166883
0.00152162
0.00327864
0.00324241
0.00319606
0.00315661
0.0031202
0.00308268
0.00305522
0.00303046
0.00299181
0.00294909
0.00291588
0.00288213
0.00283564
0.00278379
0.00273649
0.00269351
0.00264849
0.00260266
0.00255247
0.0024983
0.00243803
0.00237078
0.00229605
0.00221276
0.0021208
0.00201915
0.00190729
0.00178451
0.00165003
0.00150327
0.00345819
0.0033169
0.0032185
0.00316741
0.00313251
0.00309675
0.0030648
0.0030331
0.00299281
0.00295214
0.00291801
0.00288095
0.0028334
0.00278181
0.00273329
0.00268789
0.00264205
0.00259504
0.00254449
0.00249016
0.00242971
0.00236229
0.00228728
0.00220381
0.0021114
0.00200977
0.00189788
0.00177564
0.0016425
0.00149813
0.00496844
0.00423835
0.00397776
0.00323106
0.0021142
0.0020254
0.00138306
-0.000164897
-0.00169063
-0.00285755
0.00438787
0.00374615
0.00341662
0.00257778
0.00169198
0.00149144
0.000415369
-0.000956136
-0.00212745
-0.00326615
0.00398219
0.00351225
0.00307047
0.00251178
0.0017173
0.00124775
0.000387347
-0.000656848
-0.00185929
-0.00288638
0.00356013
0.00307753
0.00266373
0.0021047
0.00140867
0.000878556
0.000145083
-0.000832921
-0.00175503
-0.00276247
0.00317858
0.00281756
0.00238427
0.00190609
0.00132273
0.000776876
7.55914e-05
-0.000777551
-0.00160708
-0.00245092
0.00286467
0.00250643
0.00211075
0.00163235
0.00111187
0.00054448
-6.76615e-05
-0.000820868
-0.00152287
-0.00223646
0.00258518
0.00228054
0.00189902
0.00146881
0.00100421
0.00048527
-9.26751e-05
-0.000753671
-0.00136017
-0.00196249
0.00234952
0.00206259
0.00170739
0.00129801
0.000867425
0.00037375
-0.000149843
-0.000726335
-0.00125569
-0.00176359
0.00214872
0.00188695
0.00155459
0.00117935
0.000782202
0.000336019
-0.000141864
-0.000646762
-0.00110975
-0.00154373
0.0019784
0.00173425
0.001424
0.00107179
0.000702949
0.000290692
-0.000144521
-0.000588422
-0.000998772
-0.0013797
0.0018369
0.00160754
0.00131826
0.000994478
0.000650034
0.000272423
-0.000117769
-0.000510749
-0.000877194
-0.0012148
0.00171819
0.00150107
0.0012329
0.000929148
0.000608485
0.000261829
-9.40167e-05
-0.00044636
-0.000777154
-0.00108279
0.00162064
0.00141416
0.00116347
0.000881856
0.0005823
0.000262503
-6.0842e-05
-0.00037933
-0.000680482
-0.000959624
0.00154078
0.00134292
0.00110903
0.000845245
0.000564818
0.000269085
-2.8707e-05
-0.000320962
-0.000598409
-0.000856958
0.00147658
0.00128629
0.00106577
0.00081896
0.000555923
0.000280539
4.36689e-06
-0.000266376
-0.000524649
-0.000766181
0.0014263
0.00124198
0.00103317
0.000800858
0.000553011
0.000294817
3.59245e-05
-0.00021858
-0.000462
-0.000690454
0.00138805
0.00120823
0.00100842
0.00078837
0.000553936
0.000310205
6.50291e-05
-0.000176808
-0.000408727
-0.000626821
0.00136197
0.00118586
0.000992944
0.00078266
0.000559114
0.000326733
9.15925e-05
-0.000141462
-0.000365224
-0.00057585
0.001344
0.00117052
0.000982815
0.00078039
0.000565695
0.000342222
0.000115031
-0.000111517
-0.000330096
-0.000535577
0.00134188
0.00117103
0.00098598
0.000786938
0.000575988
0.000356224
0.00013285
-9.05645e-05
-0.000307089
-0.00051279
-0.00654224
-0.00679452
-0.00734173
-0.00887976
-0.0109234
-0.0121847
-0.0115346
-0.00916109
-0.00581527
-0.0026533
-0.000214189
0.00143594
0.00223149
0.00255004
0.0025116
0.00231396
0.00206041
0.00180446
0.00156858
0.00135979
0.00117839
0.00102222
0.000888243
0.000773419
0.000674916
0.000590082
0.000516622
0.000452479
0.000395968
0.000345695
0.000300597
0.000259793
0.000222246
0.000187549
0.000155115
0.000124502
9.52671e-05
6.71633e-05
3.9871e-05
1.3176e-05
-0.00658892
-0.00683374
-0.00744008
-0.00923727
-0.0117772
-0.0132414
-0.01257
-0.00992516
-0.00637128
-0.00301576
-0.000483322
0.00123087
0.00209219
0.00244053
0.00242646
0.00224485
0.00200428
0.00175933
0.00153265
0.0013314
0.00115628
0.00100519
0.0008753
0.000763681
0.000667555
0.000584458
0.000512271
0.000449077
0.000393264
0.000343467
0.000298785
0.000258446
0.000221089
0.000186637
0.000154441
0.000123995
9.49081e-05
6.69211e-05
3.97398e-05
1.3148e-05
-0.00619113
-0.00688605
-0.00788192
-0.0103575
-0.0136069
-0.0154792
-0.0146528
-0.0114702
-0.00743815
-0.00373674
-0.00100353
0.000800986
0.00177329
0.00218529
0.00222233
0.0020799
0.00187271
0.00165631
0.00145361
0.00127185
0.0011119
0.000972297
0.000850904
0.000745485
0.000653979
0.000574325
0.000504647
0.00044331
0.000388906
0.000340358
0.000296407
0.000256215
0.000219579
0.000185463
0.000153452
0.000123236
9.43886e-05
6.66117e-05
3.96127e-05
1.31583e-05
-0.00623816
-0.00705275
-0.00821928
-0.0113699
-0.0156048
-0.0180284
-0.0170989
-0.0132405
-0.00864491
-0.00455228
-0.00166744
0.000238389
0.00131561
0.00181112
0.00192007
0.00183796
0.00168404
0.00151246
0.00134528
0.00119051
0.00105066
0.000925934
0.000815546
0.000718335
0.000632934
0.000557839
0.000491592
0.000432874
0.000380495
0.000333468
0.000290807
0.000251793
0.000215935
0.000182559
0.000151212
0.000121538
9.31588e-05
6.57946e-05
3.91499e-05
1.30182e-05
-0.00562263
-0.00705321
-0.00824185
-0.0121371
-0.0171494
-0.0196936
-0.0186617
-0.0142317
-0.0093656
-0.00528739
-0.00236621
-0.00043987
0.000713115
0.00130521
0.00151685
0.00152534
0.00144248
0.00132843
0.00120706
0.0010868
0.000972351
0.000866249
0.000769629
0.000682702
0.000605037
0.000535817
0.000474076
0.000418847
0.000369192
0.000324298
0.000283375
0.000245809
0.000211081
0.000178675
0.000148161
0.000119198
9.14411e-05
6.4629e-05
3.84806e-05
1.28043e-05
-0.00565341
-0.00671857
-0.00779615
-0.0118314
-0.0171284
-0.0197868
-0.0188276
-0.014502
-0.00959981
-0.00568116
-0.0029006
-0.00107332
4.99199e-05
0.000682555
0.00100153
0.00113791
0.00116377
0.00112426
0.00105419
0.000971405
0.00088473
0.000799004
0.000717448
0.000641814
0.000572684
0.00050998
0.000453278
0.000401996
0.000355467
0.000313077
0.000274206
0.000238341
0.000205012
0.000173792
0.000144298
0.000116217
8.92362e-05
6.31186e-05
3.76039e-05
1.25171e-05
-0.00578725
-0.00737462
-0.00694969
-0.0108822
-0.0156933
-0.0185003
-0.0180117
-0.0142236
-0.00952809
-0.00577128
-0.00313919
-0.00139402
-0.000340345
0.000237734
0.000545161
0.000725884
0.000841695
0.000895168
0.000889751
0.000848151
0.000790113
0.000725077
0.000658891
0.000594996
0.000535034
0.000479598
0.000428688
0.000382022
0.000339186
0.000299769
0.000263326
0.000229463
0.000197795
0.000167977
0.000139684
0.000112645
8.65844e-05
6.12937e-05
3.65392e-05
1.21654e-05
-0.0056404
-0.00524452
-0.00643274
-0.00944215
-0.0138343
-0.016451
-0.0162653
-0.0131887
-0.00899163
-0.00552742
-0.00318266
-0.0015654
-0.000539093
1.86704e-05
0.000306511
0.000486716
0.000621033
0.000700385
0.000729801
0.000722614
0.000692236
0.000648485
0.000598292
0.000546573
0.000495898
0.000447596
0.000402284
0.000360146
0.00032105
0.000284751
0.000250914
0.000219246
0.000189436
0.000161208
0.00013429
0.000108454
8.34626e-05
5.91383e-05
3.5278e-05
1.17477e-05
-0.00469673
-0.0061288
-0.00659803
-0.00835703
-0.0118168
-0.0138512
-0.0135136
-0.0109466
-0.00757881
-0.00482351
-0.00297497
-0.00165176
-0.000730187
-0.000177343
0.00014753
0.000345944
0.000483878
0.000570692
0.000611584
0.000616865
0.000599612
0.000569449
0.000531708
0.000490818
0.00044947
0.00040925
0.000370829
0.000334399
0.000299949
0.000267413
0.000236658
0.000207543
0.000179878
0.00015347
0.000128121
0.000103655
7.98827e-05
5.66629e-05
3.38273e-05
1.12663e-05
-0.00410276
-0.00508473
-0.00576926
-0.00711194
-0.00937649
-0.0106599
-0.0104296
-0.00860952
-0.00624528
-0.00423901
-0.00278803
-0.00172107
-0.000933936
-0.000403049
-5.04408e-05
0.000196969
0.00035637
0.000442668
0.000484184
0.000508212
0.00051256
0.000496894
0.000471133
0.000441288
0.000408823
0.000375312
0.000342025
0.000309793
0.000278984
0.000249691
0.000221802
0.000195186
0.000169686
0.000145164
0.000121466
9.84589e-05
7.59968e-05
5.39706e-05
3.22474e-05
1.07419e-05
-0.0036059
-0.0044799
-0.00523066
-0.00608311
-0.00742653
-0.00813963
-0.00791984
-0.00687122
-0.00532058
-0.00380096
-0.00258426
-0.00167347
-0.00103032
-0.000568867
-0.00022609
-3.93115e-06
0.000135963
0.000276311
0.000403441
0.000460194
0.000456704
0.000433945
0.000411469
0.000385327
0.000358807
0.000332482
0.000306386
0.000280563
0.000255086
0.000230081
0.000205656
0.000181889
0.000158786
0.000136307
0.00011438
9.29291e-05
7.186e-05
5.11028e-05
3.05635e-05
1.01826e-05
-0.00313329
-0.00384383
-0.0044771
-0.00511579
-0.00592614
-0.00638892
-0.006263
-0.00558356
-0.00453316
-0.00339196
-0.00242445
-0.00167795
-0.00111278
-0.000685194
-0.00037153
-0.000180116
-6.48146e-05
3.86937e-05
0.000138184
0.000227387
0.000301963
0.000340448
0.000349566
0.000341544
0.000324122
0.00030265
0.000279722
0.000256589
0.000233792
0.000211541
0.000189808
0.000168544
0.000147691
0.000127209
0.000107056
8.71905e-05
6.75554e-05
4.81136e-05
2.88065e-05
9.59904e-06
-0.00275775
-0.00331631
-0.00385102
-0.00437201
-0.00490858
-0.00522643
-0.00514321
-0.0046495
-0.00391437
-0.00308711
-0.00230247
-0.00166584
-0.00116582
-0.000748642
-0.000409332
-0.000204003
-0.000111677
-8.1071e-06
0.000118812
0.000214036
0.00025933
0.000278817
0.000280139
0.000274235
0.000264874
0.000253224
0.000239717
0.000224587
0.000208136
0.000190737
0.000172763
0.000154509
0.000136161
0.000117816
9.95208e-05
8.12946e-05
6.3135e-05
4.50439e-05
2.70019e-05
8.99952e-06
-0.00241811
-0.00286892
-0.0033154
-0.00374689
-0.00413707
-0.00432391
-0.00425489
-0.00393371
-0.00339792
-0.00276073
-0.00214694
-0.00161148
-0.00117256
-0.000829556
-0.000552486
-0.00037967
-0.000263304
-0.000109939
6.90344e-05
0.000183585
0.000231373
0.000248335
0.000252136
0.000248926
0.000240979
0.000229852
0.000216724
0.00020249
0.000187636
0.00017241
0.000156845
0.000140974
0.000124838
0.000108488
9.19855e-05
7.53741e-05
5.86847e-05
4.19487e-05
2.51808e-05
8.39447e-06
-0.00213705
-0.00251165
-0.0028829
-0.00323496
-0.00352833
-0.00368884
-0.00363894
-0.00338077
-0.00297829
-0.00250411
-0.00202194
-0.00157638
-0.00118855
-0.000844812
-0.000572163
-0.000407521
-0.000294061
-0.000187502
-8.42546e-05
4.38304e-06
7.16121e-05
0.000118288
0.000147875
0.000165311
0.000174328
0.000177284
0.000175657
0.00017038
0.000162227
0.000151904
0.000140038
0.000127097
0.0001134
9.91385e-05
8.44636e-05
6.94746e-05
5.42534e-05
3.88673e-05
2.33678e-05
7.79204e-06
-0.00188517
-0.0022057
-0.00251208
-0.00280642
-0.00304479
-0.00315852
-0.00312615
-0.00295423
-0.00264938
-0.00226028
-0.00186304
-0.00149956
-0.00118091
-0.000917628
-0.000696012
-0.000494183
-0.000327123
-0.000176803
-5.61385e-05
2.96201e-05
8.49945e-05
0.00011988
0.000141154
0.000152946
0.000157969
0.000158212
0.000155129
0.000149782
0.000142753
0.000134359
0.000124744
0.000114055
0.000102458
9.01024e-05
7.71492e-05
6.37178e-05
4.99204e-05
3.58508e-05
2.15919e-05
7.2019e-06
-0.00167333
-0.00195066
-0.00221511
-0.00246302
-0.00266404
-0.00276566
-0.00274105
-0.00260218
-0.00237016
-0.00207431
-0.00175848
-0.00145398
-0.0011706
-0.000911208
-0.000690723
-0.000519838
-0.000383636
-0.000276892
-0.00018174
-0.000100461
-3.60133e-05
1.37342e-05
5.14595e-05
7.92254e-05
9.87929e-05
0.000111576
0.000118729
0.00012119
0.000119879
0.000115656
0.000109245
0.000101159
9.17685e-05
8.13294e-05
7.00692e-05
5.81526e-05
4.57337e-05
3.29366e-05
1.98763e-05
6.63181e-06
-0.00148546
-0.00173187
-0.00196123
-0.00217212
-0.00234194
-0.00243184
-0.00242132
-0.00232125
-0.00214282
-0.00190523
-0.00164056
-0.00137943
-0.00113965
-0.000931863
-0.000747399
-0.000574023
-0.000427045
-0.000297367
-0.000187447
-0.000101344
-3.74863e-05
9.00113e-06
4.24807e-05
6.6071e-05
8.21241e-05
9.25098e-05
9.86359e-05
0.000101498
0.000101655
9.9471e-05
9.52363e-05
8.9238e-05
8.17654e-05
7.30624e-05
6.33716e-05
5.28765e-05
4.17598e-05
3.01689e-05
1.82464e-05
6.09028e-06
-0.00132648
-0.0015481
-0.00175325
-0.00193791
-0.00208731
-0.00216978
-0.00216925
-0.00209372
-0.00195375
-0.00176206
-0.00154798
-0.00133564
-0.00112818
-0.000931049
-0.000746922
-0.000589307
-0.000459095
-0.00035196
-0.000260643
-0.000182629
-0.000117969
-6.5155e-05
-2.24468e-05
1.14335e-05
3.75458e-05
5.68097e-05
7.01249e-05
7.83954e-05
8.25745e-05
8.34937e-05
8.17943e-05
7.79521e-05
7.23595e-05
6.53147e-05
5.71046e-05
4.79433e-05
3.80457e-05
2.75827e-05
1.67238e-05
5.58449e-06
-0.00118846
-0.0013917
-0.00157713
-0.00174055
-0.00187256
-0.00195097
-0.00195932
-0.00190357
-0.00179576
-0.00164439
-0.00146522
-0.00127676
-0.00109563
-0.000926246
-0.000771254
-0.000628461
-0.000499678
-0.000386544
-0.000286511
-0.00020266
-0.000135102
-8.16179e-05
-3.96983e-05
-7.18107e-06
1.77594e-05
3.6634e-05
5.05714e-05
6.03391e-05
6.64789e-05
6.94675e-05
6.97512e-05
6.77317e-05
6.37918e-05
5.8236e-05
5.13698e-05
4.3426e-05
3.46441e-05
2.52147e-05
1.533e-05
5.12168e-06
-0.00107164
-0.00126091
-0.0014319
-0.00158056
-0.00170033
-0.00177411
-0.00179019
-0.00175223
-0.0016678
-0.00154275
-0.00139264
-0.00123689
-0.00108246
-0.000929485
-0.000781131
-0.00064325
-0.000522433
-0.000417429
-0.000327232
-0.000249673
-0.00018342
-0.00012755
-8.09629e-05
-4.27349e-05
-1.20813e-05
1.17734e-05
2.97236e-05
4.2668e-05
5.14121e-05
5.66142e-05
5.88281e-05
5.85119e-05
5.60848e-05
5.18785e-05
4.62249e-05
3.93768e-05
3.1598e-05
2.30961e-05
1.40841e-05
4.70836e-06
-0.000971799
-0.0011511
-0.0013109
-0.00144788
-0.00155791
-0.00162921
-0.00165142
-0.00162582
-0.00156006
-0.00146014
-0.00133588
-0.00119977
-0.00106054
-0.000923134
-0.000789984
-0.000665673
-0.000552374
-0.000450032
-0.000358375
-0.000277715
-0.000208711
-0.000150951
-0.000103151
-6.39586e-05
-3.2171e-05
-6.79616e-06
1.29887e-05
2.78823e-05
3.85301e-05
4.55029e-05
4.93339e-05
5.04774e-05
4.93616e-05
4.63326e-05
4.17394e-05
3.58502e-05
2.89488e-05
2.12568e-05
1.30041e-05
4.35078e-06
-0.000888543
-0.00106094
-0.00121294
-0.00134191
-0.0014444
-0.00151286
-0.00153951
-0.00152511
-0.00147509
-0.00139327
-0.00128756
-0.0011701
-0.00104909
-0.000926396
-0.000803667
-0.000685298
-0.000575138
-0.000474894
-0.000385
-0.000305698
-0.000236952
-0.000177988
-0.000127952
-8.6087e-05
-5.16306e-05
-2.37983e-05
-1.80562e-06
1.50609e-05
2.74765e-05
3.60281e-05
4.12715e-05
4.36739e-05
4.36815e-05
4.1658e-05
3.79671e-05
3.28924e-05
2.6734e-05
1.97245e-05
1.21078e-05
4.05613e-06
-0.000819757
-0.00098758
-0.00113379
-0.00125653
-0.00135358
-0.00142012
-0.00145053
-0.00144469
-0.00140663
-0.00134002
-0.00125148
-0.00115011
-0.00104193
-0.000929425
-0.00081513
-0.000703239
-0.000597413
-0.000499639
-0.000410574
-0.000330737
-0.000260454
-0.000199539
-0.000147492
-0.000103631
-6.72312e-05
-3.75441e-05
-1.38212e-05
4.63569e-06
1.8497e-05
2.83427e-05
3.47468e-05
3.8181e-05
3.91085e-05
3.79074e-05
3.49522e-05
3.05396e-05
2.4983e-05
1.85222e-05
1.14093e-05
3.83011e-06
-0.000765119
-0.000930873
-0.00107359
-0.00119161
-0.00128432
-0.00134884
-0.00138149
-0.00138242
-0.00135478
-0.00130132
-0.0012267
-0.00113781
-0.00104023
-0.000936641
-0.000829399
-0.000722223
-0.000618823
-0.00052172
-0.000432308
-0.000351482
-0.000279764
-0.000217165
-0.000163339
-0.000117699
-7.95937e-05
-4.83118e-05
-2.31363e-05
-3.37142e-06
1.16555e-05
2.25232e-05
2.98354e-05
3.40643e-05
3.56994e-05
3.51248e-05
3.27309e-05
2.88204e-05
2.37187e-05
1.76685e-05
1.09198e-05
3.67883e-06
-0.000722597
-0.000887773
-0.00102966
-0.00114549
-0.00123505
-0.00129762
-0.00133194
-0.0013382
-0.00131815
-0.00127462
-0.00121216
-0.00113539
-0.00104758
-0.000950983
-0.000848427
-0.000743766
-0.000640902
-0.000542959
-0.000452008
-0.000369304
-0.000295544
-0.000230915
-0.000175251
-0.000127917
-8.83159e-05
-5.57217e-05
-2.94214e-05
-8.68623e-06
7.1819e-06
1.87879e-05
2.67541e-05
3.15362e-05
3.36579e-05
3.3499e-05
3.14698e-05
2.78762e-05
2.30657e-05
1.7264e-05
1.07301e-05
3.66264e-06
-0.00070233
-0.000868167
-0.00100845
-0.00112273
-0.00121065
-0.00127183
-0.00130647
-0.00131514
-0.00129877
-0.00126005
-0.00120325
-0.00113201
-0.00104887
-0.000956119
-0.000856587
-0.000753842
-0.000651793
-0.000553818
-0.000462299
-0.000378747
-0.000304003
-0.00023834
-0.000181543
-0.000133278
-9.28805e-05
-5.95941e-05
-3.27011e-05
-1.14442e-05
4.8611e-06
1.68475e-05
2.51314e-05
3.01914e-05
3.25539e-05
3.26041e-05
3.07634e-05
2.73303e-05
2.26695e-05
1.69914e-05
1.0579e-05
3.6273e-06
)
;

boundaryField
{
    inlet
    {
        type            zeroGradient;
    }
    outlet
    {
        type            fixedValue;
        value           uniform 0;
    }
    lowerWall
    {
        type            zeroGradient;
    }
    upperWall
    {
        type            zeroGradient;
    }
    defaultFaces
    {
        type            empty;
    }
}


// ************************************************************************* //
