/*--------------------------------*- C++ -*----------------------------------*\
| =========                 |                                                 |
| \\      /  F ield         | OpenFOAM: The Open Source CFD Toolbox           |
|  \\    /   O peration     | Version:  2112                                  |
|   \\  /    A nd           | Website:  www.openfoam.com                      |
|    \\/     M anipulation  |                                                 |
\*---------------------------------------------------------------------------*/
FoamFile
{
    version     2.0;
    format      ascii;
    arch        "LSB;label=32;scalar=64";
    class       surfaceScalarField;
    location    "0.17";
    object      phi;
}
// * * * * * * * * * * * * * * * * * * * * * * * * * * * * * * * * * * * * * //

dimensions      [0 3 -1 0 0 0 0];

oriented        oriented;

internalField   nonuniform List<scalar> 
3653
(
9.92614e-07
7.38572e-09
9.79129e-07
1.3485e-08
9.64096e-07
1.50332e-08
9.48696e-07
1.54005e-08
9.32803e-07
1.58923e-08
9.15701e-07
1.71026e-08
8.97568e-07
1.8133e-08
8.80053e-07
1.75148e-08
8.6344e-07
1.66129e-08
8.46499e-07
1.69405e-08
8.27789e-07
1.87104e-08
8.08853e-07
1.89361e-08
7.89662e-07
1.91912e-08
7.73455e-07
1.62062e-08
7.57711e-07
1.57447e-08
7.47493e-07
1.02179e-08
7.35789e-07
1.17039e-08
7.29953e-07
5.83588e-09
7.19365e-07
1.05877e-08
7.13748e-07
5.61738e-09
7.01837e-07
1.19112e-08
6.93145e-07
8.69149e-09
6.77407e-07
1.57388e-08
6.62942e-07
1.44644e-08
6.40375e-07
2.25669e-08
6.13238e-07
2.71369e-08
5.81561e-07
3.16771e-08
5.24192e-07
5.73688e-08
4.71985e-07
5.22075e-08
1.11469e-07
3.60516e-07
1.00298e-06
4.40768e-09
1.00654e-06
9.91855e-09
1.00895e-06
1.26298e-08
1.01034e-06
1.40049e-08
1.01138e-06
1.48512e-08
1.01228e-06
1.62112e-08
1.01259e-06
1.78179e-08
1.0119e-06
1.8207e-08
1.01061e-06
1.78972e-08
1.00938e-06
1.81737e-08
1.00819e-06
1.98993e-08
1.00658e-06
2.05472e-08
1.00416e-06
2.16126e-08
1.00116e-06
1.92056e-08
9.96832e-07
2.00738e-08
9.92721e-07
1.43289e-08
9.86502e-07
1.79221e-08
9.8206e-07
1.02785e-08
9.7404e-07
1.86077e-08
9.68355e-07
1.13025e-08
9.58806e-07
2.14597e-08
9.49103e-07
1.8395e-08
9.37859e-07
2.69821e-08
9.22665e-07
2.96587e-08
9.03323e-07
4.19095e-08
8.87735e-07
4.2724e-08
8.45355e-07
7.40577e-08
8.35649e-07
6.70743e-08
7.60719e-07
1.27138e-07
1.28855e-07
7.43334e-07
1.0018e-06
2.60881e-09
1.00496e-06
6.76098e-09
1.00778e-06
9.80762e-09
1.01e-06
1.17808e-08
1.012e-06
1.28584e-08
1.01418e-06
1.40224e-08
1.01642e-06
1.55861e-08
1.01809e-06
1.65367e-08
1.01912e-06
1.68656e-08
1.02015e-06
1.71375e-08
1.02163e-06
1.84204e-08
1.02308e-06
1.91009e-08
1.02413e-06
2.05582e-08
1.02392e-06
1.94215e-08
1.0227e-06
2.12894e-08
1.01963e-06
1.74047e-08
1.0155e-06
2.20472e-08
1.0106e-06
1.51749e-08
1.00393e-06
2.5278e-08
9.98697e-07
1.65399e-08
9.89415e-07
3.07416e-08
9.83219e-07
2.45909e-08
9.71659e-07
3.85422e-08
9.61734e-07
3.95838e-08
9.48829e-07
5.48149e-08
9.32185e-07
5.93675e-08
9.17746e-07
8.84965e-08
8.94057e-07
9.07636e-08
8.7965e-07
1.41544e-07
1.57971e-07
8.50534e-07
1.00084e-06
1.76992e-09
1.00258e-06
5.01506e-09
1.00461e-06
7.78514e-09
1.00657e-06
9.82257e-09
1.00835e-06
1.10692e-08
1.01021e-06
1.217e-08
1.01218e-06
1.36112e-08
1.01392e-06
1.47994e-08
1.01525e-06
1.55324e-08
1.01653e-06
1.58612e-08
1.01808e-06
1.6872e-08
1.01963e-06
1.75484e-08
1.02084e-06
1.93522e-08
1.02104e-06
1.92175e-08
1.0205e-06
2.18265e-08
1.01825e-06
1.96598e-08
1.01589e-06
2.44031e-08
1.01127e-06
1.97963e-08
1.00786e-06
2.86856e-08
1.00146e-06
2.29438e-08
9.96848e-07
3.5353e-08
9.89291e-07
3.21477e-08
9.82191e-07
4.56421e-08
9.74205e-07
4.75701e-08
9.63577e-07
6.54429e-08
9.54762e-07
6.81817e-08
9.42561e-07
1.00698e-07
9.31492e-07
1.01833e-07
9.23587e-07
1.49448e-07
1.63786e-07
9.17773e-07
1.00041e-06
1.35542e-09
1.00156e-06
3.86904e-09
1.00315e-06
6.1923e-09
1.00488e-06
8.09423e-09
1.00654e-06
9.41459e-09
1.00818e-06
1.05265e-08
1.00994e-06
1.18504e-08
1.01163e-06
1.31134e-08
1.01309e-06
1.40678e-08
1.01434e-06
1.46118e-08
1.01572e-06
1.54973e-08
1.01692e-06
1.63482e-08
1.01813e-06
1.81361e-08
1.01844e-06
1.89093e-08
1.01866e-06
2.16073e-08
1.01717e-06
2.11511e-08
1.01602e-06
2.55478e-08
1.01247e-06
2.33489e-08
1.01037e-06
3.07877e-08
1.00492e-06
2.83926e-08
1.00236e-06
3.79079e-08
9.94993e-07
3.95191e-08
9.92344e-07
4.82909e-08
9.82913e-07
5.70012e-08
9.80249e-07
6.8107e-08
9.7013e-07
7.83003e-08
9.66499e-07
1.0433e-07
9.60177e-07
1.08154e-07
9.57037e-07
1.52589e-07
1.62625e-07
9.58197e-07
1.00032e-06
1.03137e-09
1.00117e-06
3.02671e-09
1.0024e-06
4.9624e-09
1.00384e-06
6.6458e-09
1.00534e-06
7.91813e-09
1.00686e-06
9.01234e-09
1.00846e-06
1.02453e-08
1.01005e-06
1.15192e-08
1.01154e-06
1.25837e-08
1.01283e-06
1.33211e-08
1.01415e-06
1.41737e-08
1.01529e-06
1.52134e-08
1.01648e-06
1.6942e-08
1.01698e-06
1.84153e-08
1.01755e-06
2.10316e-08
1.0167e-06
2.20072e-08
1.01642e-06
2.5826e-08
1.01389e-06
2.58769e-08
1.01286e-06
3.18194e-08
1.00908e-06
3.21704e-08
1.007e-06
3.99835e-08
1.0031e-06
4.34261e-08
9.99299e-07
5.20893e-08
9.95978e-07
6.03218e-08
9.91734e-07
7.23517e-08
9.87568e-07
8.24659e-08
9.87317e-07
1.0458e-07
9.82221e-07
1.13251e-07
9.87557e-07
1.47252e-07
1.60179e-07
9.90004e-07
1.00022e-06
8.0674e-10
1.00088e-06
2.37212e-09
1.00188e-06
3.96514e-09
1.00312e-06
5.39946e-09
1.0045e-06
6.53723e-09
1.00596e-06
7.5571e-09
1.0075e-06
8.69993e-09
1.00906e-06
9.96149e-09
1.01058e-06
1.10644e-08
1.01194e-06
1.19575e-08
1.01333e-06
1.27928e-08
1.01453e-06
1.40096e-08
1.01584e-06
1.56279e-08
1.01663e-06
1.76325e-08
1.01757e-06
2.00929e-08
1.01738e-06
2.21905e-08
1.01777e-06
2.54421e-08
1.01622e-06
2.74278e-08
1.01627e-06
3.17676e-08
1.01335e-06
3.50866e-08
1.01332e-06
4.00148e-08
1.00962e-06
4.71303e-08
1.0094e-06
5.23081e-08
1.00605e-06
6.36728e-08
1.00564e-06
7.27522e-08
1.00413e-06
8.39853e-08
1.00476e-06
1.03941e-07
1.00644e-06
1.11577e-07
1.01212e-06
1.41568e-07
1.54087e-07
1.01821e-06
1.00019e-06
6.20199e-10
1.00074e-06
1.81481e-09
1.00164e-06
3.06985e-09
1.00278e-06
4.26222e-09
1.00408e-06
5.23338e-09
1.0055e-06
6.13286e-09
1.00704e-06
7.16701e-09
1.00861e-06
8.39055e-09
1.01018e-06
9.49513e-09
1.01164e-06
1.04989e-08
1.0131e-06
1.13277e-08
1.01443e-06
1.26762e-08
1.01589e-06
1.4176e-08
1.01698e-06
1.65391e-08
1.01824e-06
1.88331e-08
1.01869e-06
2.17377e-08
1.01957e-06
2.45667e-08
1.01913e-06
2.78706e-08
1.01961e-06
3.12875e-08
1.01855e-06
3.61462e-08
1.01854e-06
4.00193e-08
1.01772e-06
4.79482e-08
1.01726e-06
5.27735e-08
1.01722e-06
6.37076e-08
1.01796e-06
7.20176e-08
1.01816e-06
8.37861e-08
1.023e-06
9.90993e-08
1.02473e-06
1.09848e-07
1.03379e-06
1.32508e-07
1.45796e-07
1.04208e-06
1.00017e-06
4.49351e-10
1.00069e-06
1.2995e-09
1.00152e-06
2.23603e-09
1.00261e-06
3.17612e-09
1.00388e-06
3.95757e-09
1.00531e-06
4.70566e-09
1.00686e-06
5.61157e-09
1.00848e-06
6.77349e-09
1.01012e-06
7.85393e-09
1.0117e-06
8.92048e-09
1.01329e-06
9.73573e-09
1.01482e-06
1.11536e-08
1.01645e-06
1.25373e-08
1.01789e-06
1.5105e-08
1.01947e-06
1.72477e-08
1.02051e-06
2.07055e-08
1.0219e-06
2.31734e-08
1.02228e-06
2.74919e-08
1.02353e-06
3.00337e-08
1.02343e-06
3.62526e-08
1.0246e-06
3.88422e-08
1.02478e-06
4.7769e-08
1.02592e-06
5.16403e-08
1.02735e-06
6.22765e-08
1.0293e-06
7.00654e-08
1.03246e-06
8.06221e-08
1.03724e-06
9.43245e-08
1.04263e-06
1.04457e-07
1.05247e-06
1.22667e-07
1.36134e-07
1.06213e-06
1.00017e-06
2.81695e-10
1.00067e-06
7.95665e-10
1.0015e-06
1.40948e-09
1.00259e-06
2.08876e-09
1.00388e-06
2.66643e-09
1.00534e-06
3.24042e-09
1.00696e-06
3.99774e-09
1.00866e-06
5.06887e-09
1.01041e-06
6.10225e-09
1.01214e-06
7.19175e-09
1.01389e-06
7.99133e-09
1.01562e-06
9.42196e-09
1.01745e-06
1.06992e-08
1.01923e-06
1.33318e-08
1.02111e-06
1.53624e-08
1.02271e-06
1.91088e-08
1.0245e-06
2.13858e-08
1.02575e-06
2.62392e-08
1.02742e-06
2.83596e-08
1.02857e-06
3.51084e-08
1.03021e-06
3.7205e-08
1.03189e-06
4.6084e-08
1.03389e-06
4.96414e-08
1.03656e-06
5.96097e-08
1.04029e-06
6.63292e-08
1.04411e-06
7.68094e-08
1.0511e-06
8.73257e-08
1.05735e-06
9.82072e-08
1.068e-06
1.1202e-07
1.24826e-07
1.07931e-06
1.00017e-06
1.07273e-10
1.0007e-06
2.71529e-10
1.00156e-06
5.50623e-10
1.00269e-06
9.525e-10
1.00405e-06
1.31209e-09
1.00559e-06
1.69938e-09
1.00729e-06
2.29297e-09
1.00912e-06
3.24602e-09
1.011e-06
4.21604e-09
1.0129e-06
5.29906e-09
1.01481e-06
6.08077e-09
1.01676e-06
7.47054e-09
1.01881e-06
8.64393e-09
1.02091e-06
1.12333e-08
1.0231e-06
1.31766e-08
1.02518e-06
1.70288e-08
1.02737e-06
1.91968e-08
1.02929e-06
2.43126e-08
1.03148e-06
2.61742e-08
1.03348e-06
3.31058e-08
1.03579e-06
3.48945e-08
1.03848e-06
4.3393e-08
1.04133e-06
4.6793e-08
1.04524e-06
5.57003e-08
1.04969e-06
6.18781e-08
1.0552e-06
7.12958e-08
1.06244e-06
8.00948e-08
1.07037e-06
9.02705e-08
1.08141e-06
1.00986e-07
1.12842e-07
1.09339e-06
1.00019e-06
-8.3975e-11
1.00076e-06
-2.98799e-10
1.00169e-06
-3.76827e-10
1.00291e-06
-2.68915e-10
1.00436e-06
-1.41023e-10
1.00602e-06
4.60473e-11
1.00784e-06
4.70239e-10
1.0098e-06
1.28215e-09
1.01185e-06
2.17012e-09
1.01393e-06
3.22126e-09
1.01603e-06
3.98081e-09
1.01821e-06
5.28762e-09
1.02049e-06
6.36093e-09
1.0229e-06
8.82222e-09
1.02538e-06
1.07013e-08
1.0279e-06
1.45085e-08
1.03043e-06
1.667e-08
1.03295e-06
2.17914e-08
1.03552e-06
2.36029e-08
1.03828e-06
3.03497e-08
1.04111e-06
3.20556e-08
1.04459e-06
3.99148e-08
1.04827e-06
4.31134e-08
1.05285e-06
5.11208e-08
1.05835e-06
5.63827e-08
1.06449e-06
6.51563e-08
1.07258e-06
7.19984e-08
1.08131e-06
8.1538e-08
1.0925e-06
8.98044e-08
1.0026e-07
1.10508e-06
1.00022e-06
-3.07703e-10
1.00088e-06
-9.58707e-10
1.00194e-06
-1.43615e-09
1.00332e-06
-1.6492e-09
1.00493e-06
-1.74522e-09
1.00671e-06
-1.73695e-09
1.00869e-06
-1.50534e-09
1.01083e-06
-8.5698e-10
1.01303e-06
-3.66129e-11
1.0153e-06
9.54777e-10
1.01759e-06
1.68934e-09
1.02e-06
2.88052e-09
1.0225e-06
3.86169e-09
1.02518e-06
6.14194e-09
1.0279e-06
7.97986e-09
1.03076e-06
1.16428e-08
1.03358e-06
1.38574e-08
1.03655e-06
1.88178e-08
1.03946e-06
2.06927e-08
1.04278e-06
2.70263e-08
1.04607e-06
2.87645e-08
1.05019e-06
3.57993e-08
1.05444e-06
3.88599e-08
1.05975e-06
4.58146e-08
1.06573e-06
5.04001e-08
1.07272e-06
5.81662e-08
1.08109e-06
6.36348e-08
1.09051e-06
7.21096e-08
1.1018e-06
7.85138e-08
8.74624e-08
1.1146e-06
1.00026e-06
-5.68884e-10
1.00102e-06
-1.7214e-09
1.00224e-06
-2.64926e-09
1.00381e-06
-3.21839e-09
1.00559e-06
-3.52912e-09
1.00753e-06
-3.68134e-09
1.00967e-06
-3.644e-09
1.01201e-06
-3.19429e-09
1.01446e-06
-2.48536e-09
1.01693e-06
-1.51944e-09
1.01945e-06
-8.31527e-10
1.02215e-06
1.88436e-10
1.02492e-06
1.08525e-09
1.02789e-06
3.17086e-09
1.03088e-06
4.99251e-09
1.03402e-06
8.50161e-09
1.03704e-06
1.08358e-08
1.04031e-06
1.55564e-08
1.04344e-06
1.7556e-08
1.04712e-06
2.33445e-08
1.05076e-06
2.51305e-08
1.05527e-06
3.12893e-08
1.06001e-06
3.4118e-08
1.06573e-06
4.00898e-08
1.07219e-06
4.39425e-08
1.07964e-06
5.07155e-08
1.0883e-06
5.49756e-08
1.09813e-06
6.22811e-08
1.10943e-06
6.72176e-08
7.46737e-08
1.12222e-06
1.00038e-06
-9.51637e-10
1.00138e-06
-2.72172e-09
1.00289e-06
-4.15417e-09
1.00474e-06
-5.07339e-09
1.00676e-06
-5.54142e-09
1.0089e-06
-5.82219e-09
1.01126e-06
-6.00894e-09
1.01383e-06
-5.76345e-09
1.01646e-06
-5.11216e-09
1.01913e-06
-4.1926e-09
1.02188e-06
-3.58412e-09
1.02481e-06
-2.73475e-09
1.02782e-06
-1.92568e-09
1.03094e-06
4.66648e-11
1.03403e-06
1.9054e-09
1.03726e-06
5.26992e-09
1.04034e-06
7.75164e-09
1.04374e-06
1.21607e-08
1.04702e-06
1.42771e-08
1.05094e-06
1.94263e-08
1.05484e-06
2.12284e-08
1.05965e-06
2.6475e-08
1.06475e-06
2.90205e-08
1.07083e-06
3.40058e-08
1.07759e-06
3.71922e-08
1.08543e-06
4.28725e-08
1.09424e-06
4.61648e-08
1.10431e-06
5.22137e-08
1.11554e-06
5.59794e-08
6.1934e-08
1.12828e-06
1.00048e-06
-1.42964e-09
1.0018e-06
-4.04846e-09
1.00372e-06
-6.07053e-09
1.00593e-06
-7.28379e-09
1.00819e-06
-7.79931e-09
1.01056e-06
-8.18982e-09
1.0132e-06
-8.64957e-09
1.01602e-06
-8.58838e-09
1.01883e-06
-7.91894e-09
1.02169e-06
-7.05132e-09
1.02471e-06
-6.61076e-09
1.02801e-06
-6.0273e-09
1.03136e-06
-5.27921e-09
1.03485e-06
-3.44391e-09
1.03816e-06
-1.40676e-09
1.04149e-06
1.94228e-09
1.04455e-06
4.69615e-09
1.04783e-06
8.87313e-09
1.051e-06
1.1112e-08
1.05485e-06
1.5579e-08
1.05878e-06
1.72952e-08
1.06365e-06
2.16082e-08
1.06891e-06
2.37529e-08
1.07516e-06
2.77619e-08
1.0821e-06
3.02529e-08
1.09014e-06
3.4827e-08
1.09905e-06
3.72617e-08
1.1092e-06
4.20605e-08
1.12037e-06
4.48134e-08
4.94124e-08
1.13289e-06
1.00091e-06
-2.33898e-09
1.00286e-06
-5.99727e-09
1.00525e-06
-8.45752e-09
1.00775e-06
-9.78538e-09
1.01023e-06
-1.02812e-08
1.01291e-06
-1.08707e-08
1.01589e-06
-1.16327e-08
1.01891e-06
-1.16045e-08
1.02179e-06
-1.0801e-08
1.02487e-06
-1.01332e-08
1.02839e-06
-1.013e-08
1.03226e-06
-9.89082e-09
1.03602e-06
-9.03888e-09
1.03956e-06
-6.99236e-09
1.04261e-06
-4.4506e-09
1.04544e-06
-8.87442e-10
1.04797e-06
2.16237e-09
1.05089e-06
5.95824e-09
1.05383e-06
8.1681e-09
1.05761e-06
1.17992e-08
1.06161e-06
1.32915e-08
1.06659e-06
1.66345e-08
1.07204e-06
1.83009e-08
1.07847e-06
2.13346e-08
1.08556e-06
2.31613e-08
1.09376e-06
2.66206e-08
1.10273e-06
2.82992e-08
1.11291e-06
3.18788e-08
1.12394e-06
3.37804e-08
3.70312e-08
1.13632e-06
1.00189e-06
-4.22446e-09
1.00528e-06
-9.389e-09
1.00851e-06
-1.16864e-08
1.01133e-06
-1.26069e-08
1.01408e-06
-1.30377e-08
1.01718e-06
-1.39713e-08
1.02053e-06
-1.49794e-08
1.02361e-06
-1.4687e-08
1.02635e-06
-1.35394e-08
1.02937e-06
-1.31537e-08
1.033e-06
-1.37584e-08
1.03701e-06
-1.39039e-08
1.04089e-06
-1.29115e-08
1.04448e-06
-1.05809e-08
1.04743e-06
-7.40711e-09
1.05003e-06
-3.48289e-09
1.05214e-06
4.58897e-11
1.05448e-06
3.62479e-09
1.05687e-06
5.77697e-09
1.06021e-06
8.4564e-09
1.06391e-06
9.59542e-09
1.06874e-06
1.1806e-08
1.07413e-06
1.29081e-08
1.08063e-06
1.48291e-08
1.08775e-06
1.60407e-08
1.0961e-06
1.82771e-08
1.1051e-06
1.9302e-08
1.11533e-06
2.16395e-08
1.12631e-06
2.28049e-08
2.49317e-08
1.13841e-06
1.00306e-06
-7.28613e-09
1.00688e-06
-1.32055e-08
1.00973e-06
-1.45381e-08
1.01179e-06
-1.46713e-08
1.0137e-06
-1.49395e-08
1.01564e-06
-1.59107e-08
1.01725e-06
-1.65982e-08
1.01823e-06
-1.56608e-08
1.01896e-06
-1.42667e-08
1.02008e-06
-1.42831e-08
1.0216e-06
-1.52692e-08
1.02313e-06
-1.54338e-08
1.02447e-06
-1.42598e-08
1.02579e-06
-1.18942e-08
1.02711e-06
-8.73435e-09
1.02874e-06
-5.10513e-09
1.03067e-06
-1.88547e-09
1.03353e-06
7.61981e-10
1.03685e-06
2.45919e-09
1.04126e-06
4.0451e-09
1.046e-06
4.8561e-09
1.05183e-06
5.97124e-09
1.05814e-06
6.60409e-09
1.06549e-06
7.47596e-09
1.07336e-06
8.16982e-09
1.08249e-06
9.15164e-09
1.09209e-06
9.69542e-09
1.10296e-06
1.07701e-08
1.11454e-06
1.12275e-08
1.20368e-08
1.12744e-06
9.92714e-07
9.79508e-07
9.6497e-07
9.50299e-07
9.3536e-07
9.19449e-07
9.02851e-07
8.8719e-07
8.72923e-07
8.5864e-07
8.43371e-07
8.27937e-07
8.13677e-07
8.01783e-07
7.93049e-07
7.87944e-07
7.86058e-07
7.8682e-07
7.89279e-07
7.93324e-07
7.98181e-07
8.04152e-07
8.10756e-07
8.18232e-07
8.26402e-07
8.35553e-07
8.45249e-07
8.56019e-07
8.67246e-07
8.79283e-07
4.3639e-07
-7.5874e-08
5.66522e-07
-1.30132e-07
6.35721e-07
-6.91991e-08
5.86762e-07
4.89595e-08
6.58629e-07
-7.18677e-08
7.89215e-07
-1.30586e-07
7.7507e-07
1.41453e-08
7.17965e-07
5.71045e-08
8.04114e-07
-8.61492e-08
-2.0484e-07
1.00895e-06
8.04396e-07
-1.36936e-07
7.99518e-07
-1.25254e-07
8.3793e-07
-1.07611e-07
8.91163e-07
-4.27389e-09
8.86415e-07
-6.712e-08
9.34855e-07
-1.79025e-07
9.96191e-07
-4.71915e-08
9.79228e-07
7.40683e-08
9.88089e-07
-9.50111e-08
-3.21828e-07
1.10508e-06
8.67866e-07
-1.54268e-07
8.67101e-07
-1.24489e-07
8.7133e-07
-1.1184e-07
9.52097e-07
-8.50406e-08
9.4381e-07
-5.88338e-08
9.16201e-07
-1.51416e-07
9.6242e-07
-9.34104e-08
1.07129e-06
-3.48059e-08
1.10311e-06
-1.26822e-07
-3.45972e-07
1.12725e-06
9.18862e-07
-1.55358e-07
9.3056e-07
-1.36187e-07
9.32828e-07
-1.14108e-07
9.56803e-07
-1.09015e-07
9.84341e-07
-8.63716e-08
9.76114e-07
-1.43189e-07
9.88028e-07
-1.05324e-07
1.05347e-06
-1.00247e-07
1.09125e-06
-1.64607e-07
-3.1523e-07
1.06051e-06
9.56047e-07
-1.53208e-07
9.58984e-07
-1.39124e-07
9.65457e-07
-1.20581e-07
9.82991e-07
-1.26549e-07
9.9311e-07
-9.64911e-08
9.97205e-07
-1.47283e-07
1.01367e-06
-1.21786e-07
1.05688e-06
-1.43465e-07
1.06702e-06
-1.74741e-07
-2.97077e-07
1.04887e-06
9.88036e-07
-1.51239e-07
9.91459e-07
-1.42547e-07
9.97039e-07
-1.2616e-07
1.00176e-06
-1.3127e-07
1.01746e-06
-1.12191e-07
1.01866e-06
-1.4848e-07
1.02804e-06
-1.31169e-07
1.04721e-06
-1.62633e-07
1.06757e-06
-1.95103e-07
-2.80746e-07
1.05124e-06
1.0155e-06
-1.48527e-07
1.01464e-06
-1.41684e-07
1.01579e-06
-1.27312e-07
1.01914e-06
-1.34615e-07
1.02652e-06
-1.19573e-07
1.02821e-06
-1.50171e-07
1.03937e-06
-1.42327e-07
1.04894e-06
-1.72203e-07
1.05139e-06
-1.97555e-07
-2.63784e-07
1.03443e-06
1.03754e-06
-1.43992e-07
1.03462e-06
-1.38763e-07
1.03577e-06
-1.28455e-07
1.03561e-06
-1.34462e-07
1.04134e-06
-1.253e-07
1.0382e-06
-1.47026e-07
1.0424e-06
-1.46529e-07
1.0462e-06
-1.76007e-07
1.04637e-06
-1.97727e-07
-2.477e-07
1.03029e-06
1.05646e-06
-1.3832e-07
1.05201e-06
-1.34317e-07
1.04915e-06
-1.25592e-07
1.04583e-06
-1.31144e-07
1.04663e-06
-1.26098e-07
1.04436e-06
-1.44756e-07
1.04501e-06
-1.47177e-07
1.04119e-06
-1.72191e-07
1.03557e-06
-1.92101e-07
-2.34016e-07
1.02188e-06
1.07186e-06
-1.30876e-07
1.06504e-06
-1.27497e-07
1.06108e-06
-1.2163e-07
1.05641e-06
-1.26474e-07
1.05458e-06
-1.24268e-07
1.04811e-06
-1.38285e-07
1.04477e-06
-1.43838e-07
1.039e-06
-1.66422e-07
1.0301e-06
-1.83202e-07
-2.17028e-07
1.01312e-06
1.08444e-06
-1.21929e-07
1.07671e-06
-1.19764e-07
1.06994e-06
-1.14859e-07
1.0628e-06
-1.19334e-07
1.05739e-06
-1.1886e-07
1.05032e-06
-1.31213e-07
1.0437e-06
-1.37216e-07
1.03377e-06
-1.56494e-07
1.02222e-06
-1.71657e-07
-2.00451e-07
1.00565e-06
1.09493e-06
-1.11781e-07
1.08525e-06
-1.10085e-07
1.07711e-06
-1.06716e-07
1.06846e-06
-1.10686e-07
1.06099e-06
-1.11386e-07
1.05123e-06
-1.21452e-07
1.04214e-06
-1.28132e-07
1.03043e-06
-1.44782e-07
1.01663e-06
-1.57854e-07
-1.81688e-07
9.97864e-07
1.10314e-06
-1.00322e-07
1.09248e-06
-9.94233e-08
1.08254e-06
-9.67686e-08
1.07214e-06
-1.0029e-07
1.06239e-06
-1.01638e-07
1.05134e-06
-1.10403e-07
1.03992e-06
-1.16713e-07
1.02604e-06
-1.309e-07
1.01054e-06
-1.42349e-07
-1.62425e-07
9.91272e-07
1.10987e-06
-8.79801e-08
1.09782e-06
-8.73695e-08
1.08663e-06
-8.5581e-08
1.07492e-06
-8.85748e-08
1.0636e-06
-9.03236e-08
1.05085e-06
-9.76519e-08
1.03779e-06
-1.03647e-07
1.0225e-06
-1.1561e-07
1.00562e-06
-1.25473e-07
-1.41989e-07
9.85184e-07
1.11496e-06
-7.46527e-08
1.10201e-06
-7.44271e-08
1.08961e-06
-7.31732e-08
1.07671e-06
-7.56758e-08
1.06393e-06
-7.7543e-08
1.05002e-06
-8.3743e-08
1.03548e-06
-8.91108e-08
1.01896e-06
-9.909e-08
1.00095e-06
-1.07463e-07
-1.2102e-07
9.79982e-07
1.11886e-06
-6.06295e-08
1.10498e-06
-6.0545e-08
1.09163e-06
-5.982e-08
1.07779e-06
-6.1838e-08
1.06394e-06
-6.36942e-08
1.04896e-06
-6.87658e-08
1.03339e-06
-7.35371e-08
1.01592e-06
-8.16227e-08
9.97086e-07
-8.8625e-08
-9.94025e-08
9.75469e-07
1.12163e-06
-4.59349e-08
1.10705e-06
-4.59697e-08
1.0929e-06
-4.56689e-08
1.07827e-06
-4.72049e-08
1.06355e-06
-4.89756e-08
1.04774e-06
-5.29553e-08
1.03127e-06
-5.70721e-08
1.01298e-06
-6.3331e-08
9.93399e-07
-6.90413e-08
-7.72504e-08
9.71247e-07
1.12302e-06
-3.05442e-08
1.10759e-06
-3.0538e-08
1.09259e-06
-3.06722e-08
1.07711e-06
-3.17277e-08
1.06154e-06
-3.33977e-08
1.04475e-06
-3.61735e-08
1.02724e-06
-3.95626e-08
1.00784e-06
-4.39251e-08
9.87177e-07
-4.83803e-08
-5.39579e-08
9.63885e-07
1.10963e-06
-1.2739e-08
1.09211e-06
-1.30137e-08
1.07499e-06
-1.35558e-08
1.05757e-06
-1.43092e-08
1.03979e-06
-1.5613e-08
1.02085e-06
-1.72419e-08
1.00077e-06
-1.94746e-08
9.78748e-07
-2.1906e-08
9.55069e-07
-2.47013e-08
-2.74672e-08
9.28578e-07
8.66544e-07
8.5353e-07
8.39975e-07
8.25665e-07
8.10052e-07
7.9281e-07
7.73336e-07
7.5143e-07
7.26729e-07
6.99261e-07
-3.08748e-08
3.08748e-08
-1.45499e-07
1.14624e-07
-3.05102e-07
1.59603e-07
-5.06734e-07
2.01632e-07
-6.87147e-07
1.80413e-07
-7.87254e-07
1.00107e-07
-7.79168e-07
-8.08612e-09
-6.76796e-07
-1.02372e-07
-5.15244e-07
-1.61551e-07
-3.34113e-07
-1.81132e-07
-1.55643e-07
-1.78469e-07
5.21326e-09
-1.60857e-07
1.41435e-07
-1.36222e-07
2.47157e-07
-1.05722e-07
3.24042e-07
-7.68852e-08
3.76678e-07
-5.26358e-08
4.10634e-07
-3.39561e-08
4.31041e-07
-2.04071e-08
4.42116e-07
-1.10749e-08
4.47106e-07
-4.99012e-09
4.48391e-07
-1.28434e-09
4.47622e-07
7.68148e-10
4.45857e-07
1.76565e-09
4.43743e-07
2.11371e-09
4.41641e-07
2.10252e-09
4.39708e-07
1.93295e-09
4.38021e-07
1.68686e-09
4.36569e-07
1.45211e-09
4.35355e-07
1.21369e-09
4.34328e-07
1.02686e-09
4.33484e-07
8.43802e-10
4.32778e-07
7.0607e-10
4.32206e-07
5.72102e-10
4.31737e-07
4.68616e-10
4.31368e-07
3.69644e-10
4.31086e-07
2.81703e-10
4.30871e-07
2.15141e-10
4.30747e-07
1.24112e-10
4.30657e-07
8.99449e-11
-1.8462e-11
-3.51869e-08
6.60617e-08
-1.92061e-07
2.71499e-07
-3.96505e-07
3.64047e-07
-5.99154e-07
4.04281e-07
-7.75168e-07
3.56426e-07
-8.45571e-07
1.7051e-07
-7.97047e-07
-5.661e-08
-6.64265e-07
-2.35154e-07
-4.85325e-07
-3.40492e-07
-2.95238e-07
-3.71218e-07
-1.06721e-07
-3.66987e-07
6.25583e-08
-3.30136e-07
2.09886e-07
-2.83549e-07
3.29664e-07
-2.255e-07
4.22537e-07
-1.69759e-07
4.92608e-07
-1.22707e-07
5.44933e-07
-8.62811e-08
5.83912e-07
-5.93859e-08
6.12858e-07
-4.00209e-08
6.34203e-07
-2.63346e-08
6.4978e-07
-1.68615e-08
6.61022e-07
-1.04737e-08
6.69095e-07
-6.30788e-09
6.74886e-07
-3.67714e-09
6.79078e-07
-2.08974e-09
6.82132e-07
-1.12113e-09
6.84418e-07
-5.98801e-10
6.86131e-07
-2.61046e-10
6.87476e-07
-1.30727e-10
6.88513e-07
-1.04191e-11
6.89362e-07
-5.74531e-12
6.9004e-07
2.80687e-11
6.90618e-07
-5.5614e-12
6.91093e-07
-6.69139e-12
6.91519e-07
-5.61915e-11
6.91888e-07
-8.68157e-11
6.92232e-07
-1.28739e-10
6.92554e-07
-1.98381e-10
6.92867e-07
-2.23402e-10
-3.32863e-10
-1.27584e-07
1.93646e-07
-2.93093e-07
4.37007e-07
-4.46e-07
5.16953e-07
-6.0012e-07
5.58401e-07
-7.1677e-07
4.73077e-07
-7.33755e-07
1.87495e-07
-6.50232e-07
-1.40133e-07
-4.97782e-07
-3.87604e-07
-3.24418e-07
-5.13856e-07
-1.49218e-07
-5.46418e-07
5.82091e-09
-5.22026e-07
1.45868e-07
-4.70183e-07
2.67283e-07
-4.04964e-07
3.6848e-07
-3.26697e-07
4.48906e-07
-2.50185e-07
5.11293e-07
-1.85093e-07
5.59406e-07
-1.34394e-07
5.96788e-07
-9.67683e-08
6.2618e-07
-6.9413e-08
6.49438e-07
-4.9593e-08
6.67812e-07
-3.5235e-08
6.82224e-07
-2.48858e-08
6.93452e-07
-1.75362e-08
7.02146e-07
-1.23713e-08
7.08888e-07
-8.83112e-09
7.14117e-07
-6.34978e-09
7.18227e-07
-4.70958e-09
7.21456e-07
-3.48932e-09
7.24051e-07
-2.72573e-09
7.26124e-07
-2.08422e-09
7.27829e-07
-1.71001e-09
7.29212e-07
-1.355e-09
7.30378e-07
-1.17172e-09
7.31335e-07
-9.63503e-10
7.32167e-07
-8.88669e-10
7.32862e-07
-7.81517e-10
7.3349e-07
-7.56412e-10
7.34028e-07
-7.36936e-10
7.3454e-07
-7.35314e-10
-7.96422e-10
-1.67623e-07
3.61269e-07
-2.42883e-07
5.12268e-07
-3.13047e-07
5.87117e-07
-4.29445e-07
6.748e-07
-4.65682e-07
5.09314e-07
-4.25943e-07
1.47756e-07
-3.14313e-07
-2.51763e-07
-1.59186e-07
-5.42731e-07
1.03382e-09
-6.74076e-07
1.35988e-07
-6.81372e-07
2.49226e-07
-6.35264e-07
3.37326e-07
-5.58284e-07
4.08486e-07
-4.76123e-07
4.66281e-07
-3.84492e-07
5.13167e-07
-2.97071e-07
5.53059e-07
-2.24985e-07
5.87594e-07
-1.68929e-07
6.1671e-07
-1.25884e-07
6.40527e-07
-9.32303e-08
6.59727e-07
-6.87934e-08
6.75176e-07
-5.06834e-08
6.87611e-07
-3.73217e-08
6.97618e-07
-2.75423e-08
7.05643e-07
-2.03969e-08
7.12086e-07
-1.52735e-08
7.17241e-07
-1.15055e-08
7.21404e-07
-8.87262e-09
7.2475e-07
-6.83526e-09
7.27487e-07
-5.46286e-09
7.29708e-07
-4.30493e-09
7.31552e-07
-3.55444e-09
7.33062e-07
-2.8645e-09
7.34342e-07
-2.45189e-09
7.35395e-07
-2.01614e-09
7.36313e-07
-1.80661e-09
7.37076e-07
-1.54455e-09
7.37764e-07
-1.44478e-09
7.38349e-07
-1.32188e-09
7.38902e-07
-1.28866e-09
-1.28877e-09
-1.0677e-07
4.68039e-07
-1.44125e-07
5.49623e-07
-1.49857e-07
5.92849e-07
-1.28298e-07
6.53241e-07
-9.05608e-08
4.71577e-07
-2.44019e-08
8.15972e-08
8.80729e-08
-3.64238e-07
2.14343e-07
-6.69001e-07
3.22031e-07
-7.81764e-07
4.16151e-07
-7.75492e-07
4.95022e-07
-7.14134e-07
5.51482e-07
-6.14744e-07
5.87606e-07
-5.12247e-07
6.07546e-07
-4.04431e-07
6.13131e-07
-3.02656e-07
6.15493e-07
-2.27347e-07
6.23739e-07
-1.77175e-07
6.38227e-07
-1.40372e-07
6.54835e-07
-1.09838e-07
6.70236e-07
-8.41947e-08
6.83148e-07
-6.35955e-08
6.9357e-07
-4.77429e-08
7.01949e-07
-3.59219e-08
7.08734e-07
-2.71813e-08
7.14284e-07
-2.0824e-08
7.1883e-07
-1.60516e-08
7.22587e-07
-1.26291e-08
7.25668e-07
-9.91619e-09
7.2823e-07
-8.02512e-09
7.30335e-07
-6.40984e-09
7.32101e-07
-5.32031e-09
7.33556e-07
-4.31933e-09
7.34796e-07
-3.69263e-09
7.3582e-07
-3.03956e-09
7.36715e-07
-2.70176e-09
7.3746e-07
-2.28917e-09
7.38132e-07
-2.11738e-09
7.38703e-07
-1.89306e-09
7.39244e-07
-1.82914e-09
-1.76803e-09
2.28692e-07
2.39347e-07
2.91136e-07
4.87179e-07
3.71051e-07
5.12934e-07
3.523e-07
6.71991e-07
3.45646e-07
4.78231e-07
3.56668e-07
7.05754e-08
3.85686e-07
-3.93257e-07
4.53752e-07
-7.37067e-07
5.18367e-07
-8.46379e-07
5.54826e-07
-8.11951e-07
5.92728e-07
-7.52036e-07
6.29466e-07
-6.51482e-07
6.58481e-07
-5.41263e-07
6.87329e-07
-4.3328e-07
7.01829e-07
-3.17155e-07
6.94364e-07
-2.19882e-07
6.79433e-07
-1.62245e-07
6.71649e-07
-1.32589e-07
6.73663e-07
-1.11851e-07
6.81441e-07
-9.19733e-08
6.9074e-07
-7.2894e-08
6.99269e-07
-5.62719e-08
7.0638e-07
-4.30332e-08
7.12159e-07
-3.29604e-08
7.1689e-07
-2.55544e-08
7.20791e-07
-1.99532e-08
7.24058e-07
-1.58955e-08
7.26777e-07
-1.26362e-08
7.29074e-07
-1.03217e-08
7.30985e-07
-8.32054e-09
7.32606e-07
-6.94118e-09
7.33952e-07
-5.66535e-09
7.35107e-07
-4.84828e-09
7.36065e-07
-3.99712e-09
7.36905e-07
-3.54227e-09
7.37606e-07
-2.98991e-09
7.3824e-07
-2.75148e-09
7.38779e-07
-2.43193e-09
7.39289e-07
-2.33945e-09
-2.2199e-09
-4.57217e-09
2.4392e-07
3.07961e-07
1.74646e-07
5.12921e-07
3.07974e-07
6.28123e-07
5.56789e-07
6.66285e-07
4.40069e-07
6.70687e-07
6.61738e-08
6.41765e-07
-3.64334e-07
6.38041e-07
-7.33344e-07
6.71551e-07
-8.79889e-07
6.75608e-07
-8.16008e-07
6.61006e-07
-7.37434e-07
6.51748e-07
-6.42224e-07
6.34637e-07
-5.24152e-07
6.35011e-07
-4.33653e-07
6.64981e-07
-3.47125e-07
6.97e-07
-2.51902e-07
7.09799e-07
-1.75043e-07
7.06956e-07
-1.29745e-07
7.01078e-07
-1.05974e-07
6.99182e-07
-9.00772e-08
7.01559e-07
-7.52707e-08
7.06083e-07
-6.07962e-08
7.11024e-07
-4.79735e-08
7.15554e-07
-3.74906e-08
7.19471e-07
-2.94717e-08
7.2279e-07
-2.3272e-08
7.25617e-07
-1.87226e-08
7.28002e-07
-1.50216e-08
7.3004e-07
-1.23593e-08
7.31751e-07
-1.00315e-08
7.33214e-07
-8.40434e-09
7.34436e-07
-6.88752e-09
7.35491e-07
-5.90258e-09
7.36367e-07
-4.87379e-09
7.37139e-07
-4.31377e-09
7.37783e-07
-3.63438e-09
7.38367e-07
-3.33554e-09
7.38864e-07
-2.92852e-09
7.39335e-07
-2.81013e-09
-2.6359e-09
8.0718e-07
4.45694e-07
7.0249e-07
2.79335e-07
7.44716e-07
2.65748e-07
8.77928e-07
4.23577e-07
9.71497e-07
3.46501e-07
1.01491e-06
2.27614e-08
1.00912e-06
-3.58541e-07
9.41382e-07
-6.6561e-07
8.90652e-07
-8.29159e-07
8.65329e-07
-7.90685e-07
8.1668e-07
-6.88785e-07
7.65245e-07
-5.9079e-07
7.04471e-07
-4.63377e-07
6.4085e-07
-3.70032e-07
6.19547e-07
-3.25822e-07
6.48448e-07
-2.80803e-07
6.94821e-07
-2.21416e-07
7.29951e-07
-1.64876e-07
7.46791e-07
-1.22814e-07
7.51478e-07
-9.47638e-08
7.51948e-07
-7.57415e-08
7.52494e-07
-6.13417e-08
7.54161e-07
-4.96406e-08
7.56589e-07
-3.99188e-08
7.59244e-07
-3.21269e-08
7.61779e-07
-2.58062e-08
7.64078e-07
-2.10221e-08
7.66092e-07
-1.70353e-08
7.67859e-07
-1.41267e-08
7.69373e-07
-1.15457e-08
7.7069e-07
-9.72086e-09
7.71804e-07
-8.00124e-09
7.72774e-07
-6.87318e-09
7.73587e-07
-5.68691e-09
7.74307e-07
-5.03323e-09
7.7491e-07
-4.23767e-09
7.75458e-07
-3.88373e-09
7.75925e-07
-3.39518e-09
7.76368e-07
-3.25296e-09
-3.02663e-09
1.16848e-06
3.82289e-07
1.09499e-06
3.52833e-07
1.06673e-06
2.94007e-07
1.12746e-06
3.62841e-07
1.2002e-06
2.73763e-07
1.2657e-06
-4.27337e-08
1.31324e-06
-4.06085e-07
1.23416e-06
-5.86527e-07
1.06436e-06
-6.59366e-07
9.54449e-07
-6.80772e-07
8.85243e-07
-6.19579e-07
8.11087e-07
-5.16634e-07
7.47865e-07
-4.00155e-07
6.87335e-07
-3.09502e-07
6.35458e-07
-2.73945e-07
6.17208e-07
-2.62554e-07
6.36752e-07
-2.4096e-07
6.75787e-07
-2.0391e-07
7.13911e-07
-1.60939e-07
7.40038e-07
-1.20891e-07
7.53471e-07
-8.91748e-08
7.58694e-07
-6.6564e-08
7.60428e-07
-5.13744e-08
7.61419e-07
-4.09101e-08
7.62664e-07
-3.33722e-08
7.64231e-07
-2.73726e-08
7.65942e-07
-2.27331e-08
7.67591e-07
-1.86848e-08
7.69101e-07
-1.56367e-08
7.70412e-07
-1.28562e-08
7.71552e-07
-1.08615e-08
7.72516e-07
-8.96452e-09
7.73353e-07
-7.71097e-09
7.74055e-07
-6.38826e-09
7.74675e-07
-5.65357e-09
7.75195e-07
-4.75812e-09
7.75669e-07
-4.35691e-09
7.76071e-07
-3.79805e-09
7.76454e-07
-3.63539e-09
-3.36333e-09
1.15331e-06
3.56227e-07
1.166e-06
3.40145e-07
1.19002e-06
2.69982e-07
1.26859e-06
2.84278e-07
1.37009e-06
1.7226e-07
1.4162e-06
-8.88405e-08
1.38893e-06
-3.78819e-07
1.29672e-06
-4.94321e-07
1.12685e-06
-4.8949e-07
9.7595e-07
-5.29874e-07
8.9546e-07
-5.39089e-07
8.30336e-07
-4.51509e-07
7.81312e-07
-3.51131e-07
7.68791e-07
-2.96982e-07
7.66251e-07
-2.71405e-07
7.4741e-07
-2.43712e-07
7.19986e-07
-2.13537e-07
7.04433e-07
-1.88357e-07
7.08005e-07
-1.6451e-07
7.23531e-07
-1.36416e-07
7.40515e-07
-1.06159e-07
7.53204e-07
-7.92533e-08
7.6087e-07
-5.90402e-08
7.64917e-07
-4.49573e-08
7.66987e-07
-3.54416e-08
7.68203e-07
-2.85887e-08
7.69159e-07
-2.36898e-08
7.70061e-07
-1.95868e-08
7.70968e-07
-1.65429e-08
7.71835e-07
-1.37236e-08
7.72653e-07
-1.1679e-08
7.7338e-07
-9.69155e-09
7.74035e-07
-8.3659e-09
7.74595e-07
-6.94826e-09
7.75097e-07
-6.1558e-09
7.75522e-07
-5.18293e-09
7.7591e-07
-4.74512e-09
7.76241e-07
-4.12939e-09
7.76556e-07
-3.95042e-09
-3.64028e-09
1.11293e-06
3.03805e-07
1.16282e-06
2.9026e-07
1.19563e-06
2.37174e-07
1.2839e-06
1.96001e-07
1.37704e-06
7.91268e-08
1.3924e-06
-1.04206e-07
1.2988e-06
-2.85214e-07
1.18594e-06
-3.81461e-07
1.0985e-06
-4.02047e-07
9.94155e-07
-4.25533e-07
8.97591e-07
-4.42526e-07
8.38762e-07
-3.9268e-07
8.04919e-07
-3.17289e-07
7.98854e-07
-2.90917e-07
8.24436e-07
-2.96986e-07
8.58264e-07
-2.7754e-07
8.69451e-07
-2.24724e-07
8.5031e-07
-1.69216e-07
8.15915e-07
-1.30115e-07
7.84994e-07
-1.05495e-07