/*--------------------------------*- C++ -*----------------------------------*\
| =========                 |                                                 |
| \\      /  F ield         | OpenFOAM: The Open Source CFD Toolbox           |
|  \\    /   O peration     | Version:  2112                                  |
|   \\  /    A nd           | Website:  www.openfoam.com                      |
|    \\/     M anipulation  |                                                 |
\*---------------------------------------------------------------------------*/
FoamFile
{
    version     2.0;
    format      ascii;
    arch        "LSB;label=32;scalar=64";
    class       volScalarField;
    location    "0.38";
    object      nut;
}
// * * * * * * * * * * * * * * * * * * * * * * * * * * * * * * * * * * * * * //

dimensions      [0 2 -1 0 0 0 0];

internalField   nonuniform List<scalar> 
1880
(
3.52983e-11
3.4434e-12
5.5775e-13
2.59528e-14
2.13568e-14
1.57608e-13
9.56853e-15
3.97022e-14
4.1171e-14
3.98262e-14
8.40099e-15
1.38594e-14
3.33788e-14
1.05509e-14
1.85788e-14
2.37683e-14
2.21568e-13
5.9914e-13
2.89193e-13
5.09043e-13
1.57166e-13
2.68167e-12
6.5529e-12
5.0209e-12
1.92849e-11
5.21081e-12
4.75816e-11
5.50378e-11
1.07482e-10
6.01369e-10
4.61618e-09
5.69097e-09
1.30524e-09
2.5336e-10
2.04755e-11
5.58731e-11
3.69845e-12
7.52456e-12
2.91566e-12
1.7983e-12
4.35618e-12
1.38138e-12
7.02269e-12
4.78176e-12
7.37301e-11
2.59165e-11
1.93658e-10
5.21192e-11
1.10968e-10
2.33883e-10
7.05312e-11
3.75851e-10
2.31511e-10
1.05648e-10
6.61217e-10
6.39788e-10
3.58006e-10
1.79574e-09
2.96028e-09
8.43988e-10
2.64416e-09
1.92752e-09
1.69275e-09
2.65841e-10
1.88375e-09
3.29209e-11
2.45018e-09
6.93726e-10
2.27478e-09
1.23536e-10
3.28429e-09
2.72956e-11
1.88652e-09
1.74493e-09
2.40923e-10
4.1839e-09
4.16956e-10
1.47671e-09
4.81015e-09
1.88592e-09
2.24428e-09
8.87026e-09
9.64387e-10
4.40006e-09
1.14531e-08
1.37898e-09
1.16327e-08
1.55979e-08
5.04517e-09
1.70052e-08
2.60122e-11
3.00137e-10
1.125e-08
2.34663e-09
7.88167e-09
2.66621e-09
1.68986e-09
4.91358e-11
2.73998e-09
9.81584e-10
2.1637e-08
2.66966e-09
1.44421e-08
4.44839e-09
6.96394e-09
2.73078e-09
4.26873e-09
3.77863e-09
9.96761e-09
3.48083e-09
2.24131e-09
9.76945e-09
6.42312e-09
1.09482e-08
1.30396e-08
1.25144e-08
1.97678e-08
2.17022e-08
2.70434e-08
1.86839e-08
1.18056e-09
5.45108e-10
4.45127e-09
4.17183e-10
2.45936e-09
1.14838e-09
1.2578e-09
2.74346e-10
1.27239e-10
2.16584e-09
1.79104e-08
2.98898e-09
8.53685e-09
4.42002e-09
2.97474e-09
4.69066e-09
2.64465e-08
5.60738e-09
1.9911e-08
4.49414e-09
1.91095e-11
8.08731e-09
2.32677e-09
9.7401e-09
7.58957e-09
1.17861e-08
1.26846e-08
2.13015e-08
1.71721e-08
2.84774e-08
4.05882e-10
2.51295e-09
1.74685e-09
1.55472e-09
4.58982e-10
2.26734e-09
4.78531e-10
1.3527e-09
7.46672e-10
7.884e-12
5.34988e-10
9.71227e-10
5.26275e-09
3.27791e-10
3.82548e-10
1.49408e-09
1.11012e-09
2.9261e-09
1.35788e-09
6.37203e-09
4.58165e-09
6.15222e-09
6.65054e-09
9.84461e-09
1.03077e-08
1.30933e-08
1.38613e-08
1.60934e-08
1.94143e-08
2.02076e-08
1.03015e-09
3.01026e-09
3.49699e-09
5.75345e-10
2.25845e-09
8.76372e-10
1.26408e-09
2.05344e-10
1.02462e-09
9.17345e-10
4.92156e-10
7.90276e-10
8.27604e-10
6.86245e-10
2.0748e-09
1.68835e-09
3.07041e-09
2.02944e-09
3.94289e-09
4.29103e-09
5.01025e-09
5.58108e-09
6.85736e-09
7.52741e-09
1.01501e-08
1.05741e-08
1.23472e-08
1.55906e-08
1.64745e-08
2.08824e-08
6.51676e-10
2.60028e-09
2.14733e-09
5.53394e-10
1.49885e-09
1.05106e-09
1.54787e-09
1.39005e-10
1.81534e-09
6.22964e-10
1.88046e-09
2.26825e-09
2.18369e-09
1.36245e-09
3.72876e-09
3.53621e-09
4.26248e-09
3.25711e-09
5.3943e-09
5.97898e-09
6.27747e-09
6.26182e-09
7.99522e-09
8.58299e-09
1.07462e-08
1.08868e-08
1.31883e-08
1.40684e-08
1.78174e-08
1.75238e-08
6.16116e-10
2.18981e-09
1.59589e-09
4.9499e-10
1.12151e-09
1.04665e-09
1.41211e-09
8.61091e-10
2.11511e-09
9.32819e-10
2.6325e-09
2.47154e-09
3.08439e-09
2.30781e-09
4.33615e-09
3.83893e-09
4.33476e-09
2.99573e-09
5.28925e-09
5.40684e-09
6.17309e-09
6.39145e-09
8.00778e-09
8.22442e-09
1.02291e-08
1.08259e-08
1.2381e-08
1.38546e-08
1.61303e-08
1.73184e-08
4.60885e-10
1.7049e-09
1.21212e-09
6.30228e-10
1.3002e-09
1.30616e-09
1.73771e-09
1.18827e-09
2.24676e-09
1.72875e-09
3.38361e-09
3.37287e-09
3.44299e-09
2.66991e-09
4.25985e-09
4.14416e-09
4.50187e-09
3.6915e-09
5.63084e-09
6.00771e-09
6.5551e-09
6.59764e-09
8.22991e-09
8.50451e-09
1.02226e-08
1.07783e-08
1.25871e-08
1.32867e-08
1.60935e-08
1.61551e-08
3.62037e-10
1.14858e-09
8.12666e-10
9.66296e-10
1.23852e-09
1.55126e-09
1.7946e-09
1.59277e-09
2.43406e-09
2.18307e-09
3.32117e-09
3.75468e-09
3.28398e-09
3.02678e-09
3.77159e-09
4.02559e-09
4.36656e-09
3.9637e-09
5.47274e-09
6.31058e-09
6.53398e-09
6.76252e-09
8.01143e-09
8.50387e-09
9.9056e-09
1.07415e-08
1.21879e-08
1.30009e-08
1.51084e-08
1.56861e-08
3.13122e-10
8.73325e-10
9.06568e-10
1.20734e-09
1.46842e-09
1.74304e-09
2.00755e-09
1.93151e-09
2.57426e-09
2.4068e-09
3.63445e-09
3.35612e-09
3.47507e-09
3.13051e-09
3.97344e-09
4.142e-09
4.5831e-09
4.35232e-09
5.76101e-09
6.32158e-09
6.74021e-09
6.84829e-09
8.08735e-09
8.60528e-09
9.89058e-09
1.06132e-08
1.21805e-08
1.27259e-08
1.46662e-08
1.51697e-08
8.87542e-11
6.49503e-10
8.37298e-10
1.28997e-09
1.53891e-09
1.84632e-09
2.02582e-09
2.04359e-09
2.63837e-09
2.63437e-09
3.11147e-09
3.51343e-09
3.32764e-09
3.3618e-09
3.81268e-09
4.3995e-09
4.65659e-09
4.58911e-09
5.64493e-09
6.67235e-09
6.67253e-09
6.98558e-09
7.94539e-09
8.68921e-09
9.72159e-09
1.05394e-08
1.18157e-08
1.253e-08
1.39852e-08
1.4668e-08
3.51449e-11
5.03498e-10
8.70639e-10
1.51771e-09
1.63069e-09
1.93046e-09
2.14523e-09
2.22445e-09
2.71374e-09
2.69576e-09
3.28515e-09
3.32131e-09
3.54468e-09
3.7337e-09
4.09275e-09
4.52549e-09
4.85427e-09
4.90385e-09
5.92842e-09
6.59651e-09
6.88561e-09
7.22938e-09
8.0798e-09
8.77149e-09
9.75211e-09
1.04617e-08
1.17381e-08
1.23857e-08
1.36439e-08
1.43862e-08
1.66904e-12
2.22686e-10
6.0726e-10
9.74383e-10
1.58132e-09
1.90339e-09
1.95037e-09
2.07417e-09
2.58842e-09
2.61388e-09
2.74839e-09
3.2786e-09
3.48326e-09
3.63055e-09
4.02548e-09
4.67611e-09
4.77446e-09
4.86855e-09
5.70548e-09
6.80073e-09
6.84237e-09
7.20086e-09
7.96466e-09
8.78232e-09
9.55134e-09
1.03047e-08
1.13663e-08
1.21798e-08
1.31782e-08
1.38232e-08
5.94688e-11
9.47278e-10
1.05153e-09
1.54613e-09
1.59495e-09
1.8558e-09
1.96021e-09
2.20041e-09
2.49382e-09
2.73645e-09
3.02619e-09
3.21968e-09
3.44457e-09
3.82551e-09
4.0987e-09
4.65897e-09
4.84697e-09
5.10272e-09
5.81504e-09
6.63663e-09
6.90228e-09
7.50416e-09
8.1089e-09
8.81007e-09
9.51404e-09
1.01952e-08
1.12206e-08
1.20423e-08
1.30341e-08
1.37825e-08
5.21736e-12
1.65109e-12
2.78696e-10
5.69474e-10
1.27948e-09
1.41114e-09
1.12735e-09
1.34162e-09
1.79593e-09
2.00874e-09
2.11446e-09
2.97977e-09
3.1853e-09
3.39409e-09
3.90345e-09
4.64462e-09
4.61789e-09
5.01701e-09
5.69869e-09
6.59504e-09
6.7031e-09
7.17181e-09
7.89821e-09
8.6479e-09
9.16912e-09
9.79e-09
1.06197e-08
1.14744e-08
1.23733e-08
1.2998e-08
2.05853e-09
2.69707e-09
1.58699e-09
1.55806e-09
1.92317e-09
2.26436e-09
3.13981e-09
3.6384e-09
3.06884e-09
2.93213e-09
1.95605e-09
1.35148e-09
5.81115e-10
3.56721e-10
1.08419e-10
9.37458e-11
4.94203e-11
2.10313e-11
4.29851e-14
7.5502e-14
1.09884e-12
3.23905e-12
4.42547e-13
5.42007e-12
8.43243e-12
2.10845e-11
3.47532e-11
1.1994e-10
2.61199e-10
6.49251e-10
5.01636e-09
5.5495e-09
1.10418e-09
1.2558e-10
3.02097e-11
5.98472e-12
9.61306e-13
2.81622e-14
7.06703e-13
1.09932e-13
4.83939e-13
1.51746e-12
1.047e-12
1.15092e-12
1.75931e-12
1.42381e-12
1.76615e-12
4.17266e-12
7.39257e-12
5.22508e-12
3.12961e-12
5.16069e-12
8.52216e-12
9.19122e-12
9.77084e-12
9.18099e-12
7.78077e-12
6.54957e-12
5.75955e-12
4.93591e-12
3.45905e-11
4.61395e-12
2.70173e-13
1.38784e-14
6.07714e-14
2.96367e-14
3.741e-15
1.49798e-16
2.53016e-18
3.63459e-16
1.98706e-15
3.66244e-15
3.26862e-16
6.45028e-16
3.83968e-15
1.42266e-14
1.27771e-14
6.86004e-15
2.70996e-15
7.70589e-15
4.79493e-14
1.26499e-13
8.97461e-14
2.5725e-14
7.44621e-15
1.35981e-14
5.85251e-14
1.63236e-13
2.04108e-13
1.36766e-13
2.57696e-09
2.98941e-10
9.86532e-10
1.7496e-10
1.35451e-11
1.00803e-10
1.0693e-11
5.64272e-11
2.54103e-10
1.68882e-09
1.05047e-08
9.91546e-09
5.60153e-09
3.03379e-08
4.04497e-09
1.66709e-08
2.86684e-09
2.15264e-08
1.64843e-09
6.42949e-08
3.7285e-08
3.43184e-08
4.99302e-09
5.53895e-08
5.35388e-08
4.37062e-08
2.36043e-08
7.46588e-08
1.21877e-08
3.94758e-08
4.28733e-08
4.56616e-08
3.43774e-08
2.64516e-08
4.15893e-08
3.91429e-08
3.56836e-09
5.64812e-08
3.87662e-08
2.23257e-08
3.35118e-08
3.28216e-08
3.47976e-08
3.13716e-08
3.48045e-08
4.12367e-08
2.61134e-08
3.39765e-08
3.9074e-08
4.04328e-08
3.72125e-08
2.9107e-08
2.9351e-08
2.56502e-08
3.3865e-08
3.92544e-08
3.18802e-08
3.57544e-08
3.72061e-08
3.41388e-08
2.71313e-08
2.45315e-08
2.77595e-08
2.70966e-08
2.94161e-08
3.38977e-08
3.13433e-08
2.91884e-08
3.35e-08
3.58465e-08
2.956e-08
2.31647e-08
2.60034e-08
2.54404e-08
2.75007e-08
3.16185e-08
3.03247e-08
2.85113e-08
2.99268e-08
3.12082e-08
2.4016e-08
2.10685e-08
2.38716e-08
2.44713e-08
2.50969e-08
2.80148e-08
2.86232e-08
2.6436e-08
2.70673e-08
2.90292e-08
2.32506e-08
1.98847e-08
2.23506e-08
2.29117e-08
2.36553e-08
2.56627e-08
2.60301e-08
2.54041e-08
2.5396e-08
2.48025e-08
2.02022e-08
1.86667e-08
2.08509e-08
2.16799e-08
2.18606e-08
2.35604e-08
2.4601e-08
2.35731e-08
2.24924e-08
2.27257e-08
1.88992e-08
1.76821e-08
1.95756e-08
2.03807e-08
2.07726e-08
2.18389e-08
2.22475e-08
2.20684e-08
2.13972e-08
2.02783e-08
1.7046e-08
1.67915e-08
1.83891e-08
1.91558e-08
1.94249e-08
2.04914e-08
2.07194e-08
2.018e-08
1.9401e-08
1.86497e-08
1.63779e-08
1.60662e-08
1.74093e-08
1.80832e-08
1.84029e-08
1.89625e-08
1.90936e-08
1.87743e-08
1.81789e-08
1.70344e-08
1.49823e-08
1.52453e-08
1.63427e-08
1.69939e-08
1.7211e-08
1.77581e-08
1.76417e-08
1.72268e-08
1.66785e-08
1.57258e-08
1.49928e-08
1.48562e-08
1.56674e-08
1.60376e-08
1.62582e-08
1.65099e-08
1.64373e-08
1.61202e-08
1.56715e-08
1.47469e-08
1.36829e-08
1.38626e-08
1.46269e-08
1.49027e-08
1.51511e-08
1.51756e-08
1.5236e-08
1.46442e-08
1.44724e-08
1.3142e-08
1.05307e-09
6.62605e-10
1.37344e-09
1.35146e-09
2.24621e-09
2.19546e-09
3.0619e-09
2.62231e-09
2.98653e-09
2.16613e-09
5.83076e-12
5.50365e-12
1.37299e-12
4.53712e-13
1.03481e-13
2.40868e-12
6.46782e-12
1.28604e-11
1.72341e-11
1.75106e-11
1.01044e-13
1.08924e-14
2.08972e-15
2.11545e-15
1.48086e-14
4.63857e-14
6.00997e-14
9.34214e-14
7.75937e-14
4.75227e-14
7.58176e-08
2.24424e-08
2.45043e-10
6.37287e-08
4.40108e-08
2.0682e-08
5.54239e-09
1.20699e-09
4.72327e-10
1.92037e-10
1.51194e-10
1.29155e-10
2.11512e-10
6.01734e-10
1.55891e-09
9.03388e-09
3.24773e-08
1.24326e-07
6.83775e-08
9.55643e-09
1.22845e-09
1.97679e-10
4.17242e-11
1.20718e-11
4.66872e-12
2.22057e-12
1.14811e-12
3.97209e-13
3.7529e-14
9.34982e-16
5.20865e-14
1.92828e-13
2.79497e-13
2.54541e-13
1.56516e-13
7.59647e-14
2.97766e-14
8.008e-15
3.01507e-15
2.27162e-15
7.27098e-08
2.71201e-07
1.47414e-10
2.80769e-08
8.52266e-08
1.6854e-07
1.00889e-07
1.29337e-09
7.34248e-07
5.11575e-07
1.05846e-08
1.53408e-10
8.84197e-09
2.19836e-08
2.79428e-08
6.16667e-08
8.03353e-08
9.74935e-08
9.62662e-08
8.15774e-08
5.981e-08
3.88882e-08
2.29732e-08
1.24708e-08
6.52003e-09
3.45928e-09
1.81121e-09
8.12596e-10
2.60955e-10
5.40457e-11
4.39113e-12
1.76532e-13
2.00838e-12
4.77044e-12
5.61622e-12
3.99671e-12
2.31533e-12
9.82304e-13
3.97888e-13
9.83399e-14
1.6156e-08
2.00194e-07
3.14191e-07
6.52576e-08
1.09539e-07
1.8804e-08
1.52453e-07
6.9057e-07
1.05061e-06
4.96753e-07
6.41947e-08
2.10161e-09
1.20624e-12
7.13294e-10
1.60738e-09
7.05645e-09
2.66393e-08
5.40547e-08
7.74574e-08
8.34959e-08
7.18809e-08
5.46404e-08
4.20397e-08
3.41624e-08
2.75363e-08
2.26056e-08
2.09214e-08
2.07914e-08
1.85692e-08
1.13729e-08
2.34613e-09
3.96461e-11
3.0794e-11
1.53672e-10
1.76306e-10
1.09067e-10
4.75586e-11
1.45574e-11
3.32274e-12
2.76213e-13
5.44007e-08
2.30466e-08
4.37052e-08
1.85558e-07
7.39757e-09
1.69653e-07
3.86761e-07
9.54305e-07
1.27965e-06
7.83031e-07
1.72007e-07
7.3985e-09
2.95671e-11
7.83148e-11
1.86172e-10
9.75832e-10
1.05284e-08
3.41798e-08
5.45724e-08
7.08173e-08
7.25248e-08
5.72284e-08
4.13319e-08
3.40439e-08
2.92218e-08
2.31063e-08
1.71232e-08
1.24014e-08
3.80955e-09
5.07477e-10
2.13167e-10
5.35959e-10
2.27482e-09
1.71834e-09
8.16356e-09
5.64198e-09
2.49482e-09
8.66283e-10
2.53303e-10
1.75592e-11
5.04849e-08
2.7629e-08
9.67804e-08
1.46136e-07
1.24484e-09
6.80468e-07
1.0559e-06
1.45195e-06
1.67563e-06
1.1678e-06
3.94466e-07
4.38414e-08
1.89535e-09
8.28684e-12
3.23543e-12
5.90195e-11
4.45768e-09
3.92678e-08
6.47946e-08
6.30061e-08
6.27034e-08
5.00652e-08
3.52659e-08
2.45184e-08
1.63955e-08
7.2317e-09
3.42613e-09
1.45756e-09
1.24752e-08
2.892e-08
2.20095e-09
1.56922e-10
7.04454e-13
2.55823e-11
2.52218e-10
8.84542e-10
2.03714e-09
2.25234e-09
1.64794e-08
4.88662e-09
1.195e-06
2.47695e-08
1.37285e-07
1.2669e-07
4.28607e-10
2.3095e-07
4.52826e-07
9.13877e-07
1.3123e-06
1.14002e-06
4.83622e-07
8.74726e-08
1.19203e-08
3.22418e-09
1.53316e-09
3.19054e-11
8.03359e-10
2.58775e-08
7.78227e-08
7.22547e-08
5.54801e-08
3.81346e-08
2.00247e-08
1.69214e-08
1.30435e-08
3.59724e-09
3.97784e-11
1.51446e-10
8.24047e-10
5.28277e-10
3.59343e-08
8.45792e-10
1.52359e-12
1.19131e-10
2.9041e-10
4.61812e-10
5.63057e-10
5.91384e-10
7.05985e-10
5.19426e-10
3.56121e-08
1.18124e-07
2.06367e-07
2.44936e-07
2.59335e-08
2.30044e-07
1.09075e-06
1.73851e-06
1.9014e-06
1.54989e-06
7.81081e-07
2.29178e-07
5.07874e-08
9.68189e-09
4.43487e-09
2.44669e-10
3.40756e-09
3.27372e-08
7.27085e-08
5.15245e-08
4.29002e-08
3.77095e-08
2.78044e-08
2.16157e-08
1.84269e-08
1.45024e-08
8.42454e-09
1.27683e-09
1.31907e-09
8.0618e-09
9.28598e-10
6.48669e-11
3.0211e-10
2.01761e-09
8.37069e-09
5.97713e-09
3.6063e-09
2.09457e-09
1.38416e-09
5.91734e-10
1.303e-08
2.81091e-08
1.10028e-09
1.22141e-07
1.35116e-07
1.69082e-08
7.98428e-08
1.25227e-06
1.8041e-06
1.75718e-06
1.22396e-06
4.93303e-07
1.79388e-07
4.22744e-08
2.91045e-09
3.52047e-10
3.32114e-08
7.16639e-08
6.84193e-08
2.9494e-08
6.49223e-09
2.65522e-08
2.75599e-08
2.25208e-08
2.10755e-08
1.75236e-08
1.66566e-08
1.82645e-08
1.74384e-08
1.63575e-08
8.64048e-09
1.38493e-10
5.25032e-10
1.28468e-09
3.33794e-10
1.16925e-11
7.13851e-10
3.49436e-09
7.68118e-09
2.88561e-09
9.56797e-08
6.30827e-09
4.62996e-09
1.77636e-11
1.51483e-09
1.24061e-08
1.49274e-07
9.30766e-07
1.60065e-06
1.61714e-06
1.1635e-06
6.38743e-07
2.89168e-07
6.85528e-08
2.38431e-12
4.269e-08
7.63326e-08
6.67305e-08
5.47366e-08
4.91364e-08
3.75917e-08
3.24823e-08
3.18138e-08
2.82201e-08
2.11197e-08
1.65461e-08
1.56054e-08
1.5828e-08
1.424e-08
1.04524e-08
6.69194e-09
5.17317e-09
4.14065e-09
1.19624e-09
1.64702e-11
1.36555e-10
2.12113e-11
1.19086e-11
1.20899e-10
1.15686e-09
3.51425e-08
1.34201e-08
1.47557e-08
7.37353e-09
1.419e-09
5.26501e-08
3.82486e-07
1.14583e-06
1.54201e-06
1.58217e-06
1.23464e-06
7.50869e-07
1.32508e-07
6.48599e-09
6.58285e-08
6.54711e-08
4.83183e-08
4.75801e-08
5.25424e-08
4.29608e-08
3.2593e-08
2.18808e-08
2.50656e-08
2.30602e-08
1.14383e-08
1.40894e-08
1.36539e-08
1.22833e-08
1.39247e-08
1.38904e-08
3.77827e-09
6.7452e-12
2.89742e-10
3.41387e-11
2.85238e-10
1.0916e-10
7.10863e-10
5.50133e-10
1.34854e-09
2.20281e-09
3.3664e-08
3.34947e-08
3.92842e-08
1.39434e-10
5.56539e-11
9.24745e-09
2.29349e-07
7.92644e-07
9.73962e-07
9.1561e-07
1.17185e-07
1.28201e-08
5.81665e-08
7.80646e-08
7.34442e-08
5.62102e-08
5.85962e-08
4.57279e-08
3.70202e-08
3.13603e-08
3.33541e-08
3.15977e-08
2.89467e-08
2.22819e-08
9.84877e-12
1.85481e-08
1.77317e-09
6.27934e-09
5.24663e-09
8.10633e-10
2.85781e-10
5.60491e-08
9.30522e-09
1.10593e-08
5.80506e-09
2.18808e-11
7.45198e-11
3.22423e-11
1.69111e-11
1.14311e-10
3.52536e-08
4.92526e-08
4.15968e-08
3.92015e-08
4.70036e-08
4.13462e-08
4.23955e-08
3.10189e-08
1.36072e-08
2.88822e-08
5.80796e-08
6.63469e-08
6.29863e-08
5.80099e-08
6.28884e-08
5.11382e-08
4.39014e-08
4.26533e-08
3.80829e-08
3.05252e-08
2.52209e-08
7.32336e-09
5.59168e-09
2.13059e-08
2.05704e-08
1.75339e-08
1.55526e-08
6.35085e-09
2.6006e-09
8.75112e-09
5.85415e-08
1.26033e-07
8.19005e-08
1.18596e-09
3.62455e-09
1.30611e-08
4.04012e-09
2.51352e-10
6.94144e-09
5.9266e-12
2.19917e-08
3.74122e-08
3.31621e-08
3.37448e-08
4.04755e-08
4.68225e-08
5.04348e-08
5.61367e-08
6.16939e-08
6.30663e-08
6.78125e-08
6.10325e-08
5.50022e-08
4.95089e-08
5.07831e-08
4.89162e-08
3.88499e-08
3.51707e-08
3.72655e-08
2.91615e-08
2.72332e-08
2.72881e-08
2.37061e-08
2.18246e-08
1.72999e-08
1.026e-08
9.88044e-09
1.25224e-08
1.18406e-08
1.25338e-08
1.20839e-08
9.01022e-09
6.92078e-09
6.62131e-09
3.31516e-09
3.6648e-11
1.05762e-09
5.37593e-10
1.67323e-11
3.8208e-10
2.81014e-08
3.32911e-08
2.47474e-08
3.40374e-08
3.71243e-08
4.13427e-08
4.45061e-08
5.04228e-08
4.94763e-08
4.74071e-08
5.33612e-08
5.0186e-08
5.00743e-08
4.65787e-08
3.94112e-08
4.18552e-08
4.14598e-08
3.10622e-08
3.0103e-08
2.82948e-08
2.64834e-08
2.44572e-08
2.14616e-08
1.83576e-08
1.58256e-08
8.11565e-09
8.93172e-09
9.69768e-09
1.92033e-09
1.95154e-09
3.77427e-09
6.92219e-09
5.5985e-11
4.40592e-08
4.37589e-10
8.56784e-10
8.13308e-10
2.45002e-09
1.40043e-08
1.76201e-08
2.61602e-08
2.39416e-08
2.5483e-08
3.28298e-08
3.60198e-08
3.68506e-08
4.09324e-08
4.21296e-08
4.24116e-08
3.97777e-08
4.15549e-08
4.41907e-08
4.58941e-08
4.10317e-08
3.54009e-08
3.21976e-08
3.66998e-08
3.32877e-08
2.41298e-08
2.44691e-08
2.74146e-08
2.21063e-08
1.56563e-08
1.74784e-08
1.63007e-08
1.02188e-08
1.16687e-09
7.51649e-09
5.51362e-09
2.87321e-09
7.82037e-09
2.21858e-09
1.23154e-10
3.09595e-09
4.12005e-09
1.80105e-09
2.42571e-09
2.57979e-09
3.88094e-08
3.46648e-08
2.7297e-08
2.30488e-08
2.50598e-08
2.99757e-08
3.27657e-08
3.3133e-08
3.59448e-08
3.55741e-08
3.4619e-08
3.43683e-08
3.40483e-08
3.65106e-08
3.75003e-08
3.50507e-08
3.39138e-08
2.92372e-08
2.43948e-08
2.734e-08
2.83913e-08
2.19355e-08
2.07824e-08
1.95857e-08
1.73448e-08
1.4815e-08
1.5857e-08
1.57641e-08
1.21392e-08
1.09398e-08
9.71132e-09
7.41341e-09
8.28525e-09
7.71304e-09
9.30155e-10
3.33975e-10
4.88192e-09
2.03361e-11
3.20594e-09
2.44732e-10
5.23053e-10
2.00721e-09
2.36989e-08
2.12538e-08
2.27326e-08
2.71109e-08
2.97807e-08
2.94089e-08
2.93e-08
2.90185e-08
2.97207e-08
2.85259e-08
2.99732e-08
2.87413e-08
3.04208e-08
3.12715e-08
2.95071e-08
2.79838e-08
2.57343e-08
2.11983e-08
2.51852e-08
2.36479e-08
1.99657e-08
1.83306e-08
2.03226e-08
1.89129e-08
1.43083e-08
1.26272e-08
1.12827e-08
9.82871e-09
8.0158e-09
9.80048e-10
8.28406e-10
5.48119e-09
1.07064e-09
1.67384e-08
1.30088e-09
2.83194e-09
6.8015e-12
9.20654e-10
3.65084e-09
3.00806e-09
2.27314e-08
2.02664e-08
2.06711e-08
2.35654e-08
2.58266e-08
2.62071e-08
2.50254e-08
2.49537e-08
2.42784e-08
2.49747e-08
2.6018e-08
2.58672e-08
2.40318e-08
2.60728e-08
2.492e-08
2.26595e-08
2.44658e-08
2.35624e-08
1.9516e-08
1.98056e-08
2.09496e-08
1.91055e-08
1.5982e-08
1.56769e-08
1.34446e-08
1.25045e-08
1.03322e-08
9.30409e-09
1.00924e-08
7.07355e-09
4.02735e-09
4.09113e-09
3.66689e-09
1.87306e-09
3.24116e-09
4.21829e-09
3.66114e-09
2.64326e-09
1.7496e-09
1.24562e-09
1.96646e-08
1.89086e-08
1.94323e-08
2.0651e-08
2.19644e-08
2.25559e-08
2.17599e-08
2.08869e-08
2.13564e-08
2.15832e-08
2.11313e-08
2.24696e-08
2.29371e-08
2.03021e-08
2.15479e-08
2.20569e-08
1.97318e-08
2.03098e-08
2.07948e-08
1.93808e-08
1.80703e-08
1.85126e-08
1.6782e-08
1.54506e-08
1.44902e-08
1.42358e-08
1.23275e-08
9.53079e-09
8.32063e-09
8.09339e-09
7.92554e-09
6.85007e-09
4.96871e-09
3.14541e-09
2.27456e-09
1.59113e-09
2.10745e-09
2.31934e-09
3.53548e-09
2.91917e-09
1.83092e-08
1.7525e-08
1.73056e-08
1.83955e-08
1.90072e-08
1.88745e-08
1.88856e-08
1.83864e-08
1.7848e-08
1.84834e-08
1.90027e-08
1.82104e-08
1.91686e-08
1.91322e-08
1.7688e-08
1.84031e-08
1.88052e-08
1.78123e-08
1.80456e-08
1.89149e-08
1.75338e-08
1.63213e-08
1.63267e-08
1.58565e-08
1.37753e-08
1.16613e-08
1.08933e-08
1.05724e-08
9.65594e-09
7.75666e-09
5.61792e-09
4.07275e-09
3.62628e-09
3.47015e-09
3.67768e-09
3.83756e-09
3.92734e-09
3.32662e-09
2.93538e-09
1.69843e-09
1.65267e-08
1.61489e-08
1.60219e-08
1.61317e-08
1.64634e-08
1.64799e-08
1.57522e-08
1.57492e-08
1.59393e-08
1.54811e-08
1.61081e-08
1.65684e-08
1.57058e-08
1.62367e-08
1.67412e-08
1.57051e-08
1.60644e-08
1.73849e-08
1.69745e-08
1.64812e-08
1.70933e-08
1.69365e-08
1.55144e-08
1.42577e-08
1.37199e-08
1.28749e-08
1.12664e-08
9.42806e-09
8.17679e-09
7.38964e-09
6.73413e-09
5.7409e-09
4.73458e-09
3.59781e-09
3.08674e-09
2.54511e-09
2.74501e-09
2.45667e-09
2.83308e-09
2.36083e-09
1.51215e-08
1.46978e-08
1.43238e-08
1.43111e-08
1.42119e-08
1.39415e-08
1.37689e-08
1.33351e-08
1.32882e-08
1.38469e-08
1.37531e-08
1.38326e-08
1.44391e-08
1.39287e-08
1.36199e-08
1.44726e-08
1.44929e-08
1.41794e-08
1.48995e-08
1.51973e-08
1.43847e-08
1.35102e-08
1.29991e-08
1.19281e-08
1.03004e-08
8.63903e-09
7.57699e-09
6.73508e-09
5.83554e-09
4.57025e-09
3.37819e-09
2.43498e-09
2.0526e-09
2.02357e-09
2.34368e-09
2.51177e-09
2.69887e-09
2.28903e-09
2.18569e-09
1.34951e-09
1.41128e-08
1.36808e-08
1.31781e-08
1.28055e-08
1.25796e-08
1.22952e-08
1.1926e-08
1.19005e-08
1.20283e-08
1.21753e-08
1.26988e-08
1.28523e-08
1.24998e-08
1.22903e-08
1.14818e-08
9.8896e-09
8.68301e-09
7.40379e-09
5.50287e-09
3.84388e-09
2.86695e-09
1.90027e-09
1.04096e-09
5.21511e-10
3.54033e-10
2.69059e-10
1.8639e-10
9.58811e-11
5.77929e-11
4.28972e-11
7.81139e-11
1.30185e-10
2.38406e-10
2.85633e-10
3.49868e-10
3.16767e-10
3.08605e-10
2.49643e-10
2.42634e-10
2.16845e-10
1.26638e-08
1.22884e-08
1.17619e-08
1.13108e-08
1.0939e-08
1.0628e-08
1.04088e-08
1.02775e-08
1.02217e-08
1.01932e-08
9.79729e-09
8.71476e-09
6.92649e-09
4.56523e-09
2.18731e-09
6.11413e-10
5.07338e-11
5.4861e-13
7.51415e-11
2.84818e-10
5.03702e-10
6.36067e-10
6.17398e-10
4.924e-10
3.51889e-10
2.5165e-10
1.42562e-10
5.71902e-11
1.49094e-11
3.21692e-12
4.53804e-13
1.17167e-13
1.04424e-12
4.7387e-12
1.40127e-11
2.4714e-11
3.62254e-11
3.23662e-11
3.04852e-11
1.32901e-11
2.03563e-09
1.88741e-09
1.80347e-09
1.84515e-09
1.94475e-09
2.03381e-09
2.11101e-09
2.14777e-09
2.08324e-09
1.93595e-09
1.63684e-09
1.17349e-09
6.76947e-10
2.83328e-10
5.67526e-11
8.43113e-13
1.17413e-11
9.1683e-11
2.39541e-10
3.50561e-10
3.33112e-10
2.62837e-10
2.05232e-10
1.52702e-10
9.12049e-11
4.46207e-11
1.78823e-11
6.94483e-12
2.18611e-12
5.15713e-13
4.31019e-14
2.45989e-13
1.46537e-12
2.59762e-12
3.69604e-12
3.12452e-12
2.72729e-12
1.71728e-12
1.29201e-12
6.69444e-13
1.75277e-11
1.62149e-11
1.83741e-11
2.45482e-11
3.31124e-11
4.11514e-11
5.01063e-11
6.02262e-11
6.67369e-11
6.92244e-11
6.57813e-11
5.13995e-11
3.06241e-11
1.35089e-11
2.85898e-12
1.70412e-13
3.16547e-12
1.47351e-11
3.1694e-11
4.70721e-11
4.94702e-11
3.82953e-11
2.46565e-11
1.43651e-11
6.82285e-12
2.55034e-12
5.96978e-13
4.40214e-14
1.12355e-15
4.65424e-14
1.96759e-13
3.51335e-13
5.54234e-13
6.27919e-13
6.90731e-13
5.7417e-13
5.02326e-13
2.98742e-13
2.11277e-13
8.26582e-14
3.6891e-14
1.75378e-14
3.19879e-14
6.81257e-14
1.29238e-13
2.20086e-13
3.32933e-13
4.81297e-13
6.61881e-13
8.24231e-13
8.88499e-13
8.24781e-13
6.21329e-13
2.4549e-13
2.39471e-14
1.45735e-13
1.11581e-12
2.83426e-12
3.711e-12
2.72414e-12
1.0553e-12
2.29041e-13
1.98769e-14
1.76518e-15
3.48229e-14
9.20321e-14
1.43165e-13
1.49121e-13
1.32268e-13
9.75808e-14
6.82273e-14
4.29951e-14
2.55181e-14
1.25305e-14
5.79725e-15
1.89153e-15
8.80057e-16
1.42582e-16
4.52033e-16
1.97881e-15
)
;

boundaryField
{
    inlet
    {
        type            calculated;
        value           nonuniform List<scalar> 
20
(
1.73678e-34
3.15967e-32
1.39285e-32
8.41993e-33
7.40937e-33
3.85845e-33
4.63066e-33
1.72546e-33
2.13752e-33
1.08942e-33
2.76896e-34
1.71735e-36
3.46232e-37
8.07393e-37
1.05025e-36
1.17384e-34
5.23164e-35
5.85878e-33
6.10258e-33
1.46873e-34
)
;
    }
    outlet
    {
        type            calculated;
        value           nonuniform List<scalar> 
27
(
2.70118e-32
5.88636e-34
1.09253e-32
7.59664e-33
2.61215e-32
2.35682e-33
1.86229e-34
2.11532e-33
1.15597e-32
8.23047e-33
5.52163e-33
1.47755e-32
8.63743e-33
1.27242e-32
8.2532e-33
4.13826e-33
1.68319e-35
4.97333e-37
8.22839e-36
1.10764e-36
1.52267e-36
2.99565e-36
3.1463e-37
1.11129e-37
1.87027e-35
3.63472e-33
1.82792e-32
)
;
    }
    lowerWall
    {
        type            fixedValue;
        value           uniform 0;
    }
    upperWall
    {
        type            fixedValue;
        value           uniform 0;
    }
    defaultFaces
    {
        type            empty;
    }
}


// ************************************************************************* //
