/*--------------------------------*- C++ -*----------------------------------*\
| =========                 |                                                 |
| \\      /  F ield         | OpenFOAM: The Open Source CFD Toolbox           |
|  \\    /   O peration     | Version:  2112                                  |
|   \\  /    A nd           | Website:  www.openfoam.com                      |
|    \\/     M anipulation  |                                                 |
\*---------------------------------------------------------------------------*/
FoamFile
{
    version     2.0;
    format      ascii;
    arch        "LSB;label=32;scalar=64";
    class       volScalarField;
    location    "0.38";
    object      p;
}
// * * * * * * * * * * * * * * * * * * * * * * * * * * * * * * * * * * * * * //

dimensions      [0 2 -2 0 0 0 0];

internalField   nonuniform List<scalar> 
1880
(
0.00316284
0.00303047
0.00293817
0.00288894
0.00286
0.00283992
0.00282008
0.00280324
0.00278677
0.00277415
0.00276574
0.00275876
0.00275631
0.00275631
0.00276229
0.00276832
0.00278602
0.00280266
0.00282952
0.0028671
0.00290201
0.00296168
0.00301968
0.00308585
0.00317425
0.00325385
0.00334487
0.00344376
0.00354904
0.00356019
0.00298261
0.00295284
0.00291241
0.00287457
0.00284616
0.00282413
0.00280657
0.00279204
0.0027776
0.00276559
0.00275625
0.00274937
0.0027433
0.00274672
0.00274509
0.00275628
0.00276472
0.00278622
0.0028055
0.00283966
0.00286956
0.00292368
0.00297602
0.00303566
0.00311382
0.00318248
0.00326132
0.00337038
0.00345285
0.00356242
0.00294982
0.00292998
0.0029005
0.00286799
0.00284048
0.00281749
0.00279886
0.00278457
0.00277003
0.00275766
0.00274843
0.00273927
0.00273231
0.00273136
0.00273057
0.00273618
0.00274144
0.00275797
0.0027713
0.00279846
0.0028212
0.00286184
0.00290231
0.0029415
0.00300534
0.00305286
0.00311278
0.00318122
0.00322868
0.00326384
0.00289265
0.00288027
0.0028646
0.00284323
0.00282228
0.00280204
0.00278355
0.00277058
0.00275486
0.00274419
0.00273257
0.00272437
0.00271425
0.00271109
0.00270832
0.00270771
0.0027111
0.00271792
0.00273096
0.00274303
0.00276168
0.00278681
0.00281285
0.0028405
0.00287858
0.00290206
0.00293867
0.00296667
0.0029729
0.00297818
0.00286454
0.00285446
0.00284335
0.00282786
0.00281036
0.00279165
0.00277322
0.00275962
0.00274346
0.00273121
0.00271879
0.00270904
0.00269647
0.00269042
0.00268436
0.00267995
0.00267756
0.00267958
0.00268517
0.00268874
0.00269786
0.00270945
0.00272305
0.00273514
0.00274762
0.00275572
0.00276016
0.00275643
0.00273428
0.00270135
0.00283709
0.00282781
0.00281886
0.00280733
0.00279278
0.00277634
0.00275874
0.00274503
0.00272871
0.00271456
0.00270217
0.00268932
0.00267623
0.00266552
0.00265808
0.00264817
0.00264091
0.00263676
0.00263576
0.00263096
0.0026293
0.00262962
0.00262978
0.00262485
0.00262075
0.00260724
0.00258838
0.00255925
0.00250965
0.00244262
0.0028162
0.00280782
0.00280018
0.00279103
0.00277826
0.00276341
0.00274616
0.00273223
0.00271502
0.00269942
0.00268549
0.00267057
0.00265515
0.00264111
0.00263052
0.00261606
0.00260335
0.00259351
0.00258494
0.00257252
0.00256052
0.00255009
0.00253725
0.00251917
0.00249669
0.00246594
0.00242685
0.00237462
0.00230175
0.00221365
0.00279876
0.00279146
0.00278426
0.00277607
0.00276429
0.0027499
0.00273317
0.00271816
0.00270083
0.00268278
0.00266807
0.00265044
0.0026327
0.00261573
0.00260111
0.00258282
0.00256474
0.00254861
0.00253355
0.00251308
0.00249226
0.0024711
0.00244694
0.00241569
0.00237855
0.00233233
0.00227591
0.00220479
0.00211627
0.00200811
0.00278494
0.00277853
0.00277137
0.00276362
0.002752
0.00273786
0.00272094
0.00270515
0.00268695
0.00266694
0.00265082
0.00263061
0.00261041
0.0025903
0.00257183
0.0025498
0.00252602
0.00250451
0.00248277
0.00245496
0.00242578
0.00239483
0.00236016
0.00231786
0.0022674
0.0022078
0.00213723
0.00205148
0.00194819
0.00182647
0.00277445
0.0027688
0.00276159
0.00275353
0.00274183
0.00272704
0.00270988
0.00269274
0.00267357
0.00265168
0.00263362
0.00261137
0.00258803
0.00256522
0.00254285
0.00251673
0.00248824
0.00246096
0.00243339
0.00239864
0.00236147
0.0023221
0.00227812
0.00222561
0.00216414
0.00209297
0.002011
0.00191301
0.00179912
0.00166696
0.00276735
0.00276236
0.0027548
0.00274613
0.00273371
0.002718
0.00270004
0.00268146
0.00266094
0.00263715
0.00261708
0.00259274
0.00256631
0.00254081
0.00251458
0.00248476
0.00245152
0.00241896
0.00238615
0.00234483
0.00230043
0.00225368
0.00220116
0.00214003
0.00206915
0.00198821
0.00189704
0.00178997
0.00166713
0.00152749
0.00276389
0.00275918
0.00275119
0.00274146
0.00272809
0.00271094
0.00269184
0.00267172
0.00264946
0.00262406
0.00260165
0.00257542
0.00254588
0.00251755
0.00248804
0.00245416
0.00241676
0.00237944
0.00234153
0.00229462
0.00224339
0.00219004
0.00213042
0.00206152
0.00198278
0.0018939
0.00179537
0.00168123
0.00155164
0.00140673
0.00276431
0.00275956
0.00275066
0.00273933
0.00272425
0.00270531
0.00268459
0.00266264
0.0026386
0.00261161
0.00258703
0.0025589
0.00252646
0.00249542
0.00246281
0.00242509
0.00238389
0.00234228
0.00229978
0.00224785
0.00219044
0.00213152
0.0020658
0.00199022
0.00190505
0.00180972
0.00170507
0.00158577
0.00145109
0.00130204
0.00276942
0.00276445
0.00275459
0.00274149
0.00272449
0.00270339
0.00268075
0.00265687
0.00263074
0.0026021
0.0025751
0.00254474
0.00250962
0.00247567
0.00244015
0.00239872
0.00235397
0.00230872
0.00226165
0.00220518
0.00214251
0.0020786
0.00200787
0.00192659
0.00183599
0.00173561
0.00162612
0.00150293
0.00136449
0.00121285
0.00277909
0.00277283
0.00276071
0.00274448
0.00272428
0.00270036
0.00267533
0.00264952
0.00262153
0.0025915
0.00256256
0.00253029
0.00249297
0.00245653
0.00241852
0.00237396
0.00232628
0.00227791
0.00222671
0.00216621
0.0020992
0.00203111
0.00195617
0.00187001
0.0017749
0.00167068
0.00155732
0.00143124
0.0012904
0.00113652
0.00279792
0.00279038
0.00277538
0.00275501
0.00273077
0.00270353
0.00267596
0.00264817
0.0026184
0.00258689
0.00255579
0.00252116
0.00248155
0.00244239
0.00240131
0.00235365
0.00230307
0.00225173
0.00219639
0.00213209
0.00206175
0.00198998
0.00191127
0.00182107
0.00172225
0.00161504
0.00149857
0.00137007
0.00122775
0.00107365
0.00281846
0.00280667
0.00278594
0.00275986
0.00273142
0.0027015
0.00267215
0.00264309
0.00261191
0.00257898
0.00254577
0.00250886
0.00246744
0.00242619
0.00238287
0.00233305
0.00228058
0.00222705
0.00216835
0.00210106
0.00202839
0.00195339
0.0018712
0.001778
0.00167666
0.00156751
0.00144891
0.00131859
0.0011749
0.00101891
0.00287163
0.00284961
0.00281497
0.0027774
0.00274203
0.00270844
0.00267724
0.00264656
0.00261349
0.00257854
0.00254288
0.00250369
0.00246084
0.00241773
0.00237221
0.0023208
0.00226644
0.00220997
0.00214757
0.00207767
0.0020031
0.0019248
0.00183906
0.0017433
0.0016397
0.00152849
0.00140799
0.00127661
0.0011337
0.000979742
0.00290047
0.00286626
0.00282105
0.00277831
0.0027411
0.0027075
0.00267584
0.00264385
0.00260929
0.00257311
0.0025355
0.00249452
0.00245116
0.00240667
0.00235856
0.00230526
0.00224942
0.00219085
0.00212572
0.00205401
0.00197776
0.00189631
0.00180837
0.00171292
0.00160926
0.00149676
0.00137398
0.00124019
0.00109571
0.000940667
0.00308
0.00294062
0.00284326
0.00278898
0.00275327
0.00271966
0.00268523
0.00264959
0.00261231
0.0025746
0.0025358
0.00249441
0.00245087
0.00240509
0.00235571
0.00230229
0.00224539
0.00218454
0.00211807
0.00204635
0.00196947
0.00188644
0.00179655
0.00169951
0.00159441
0.001481
0.00135824
0.0012259
0.00108382
0.000932002
0.0037254
0.00366902
0.00330097
0.00295881
0.00229971
0.00173712
0.000925213
6.34171e-05
-0.00118889
-0.00268815
0.00367599
0.00344247
0.00294603
0.00254776
0.00185095
0.00123234
0.000457204
-0.000512767
-0.00157669
-0.00293771
0.00330512
0.00305746
0.00257947
0.00224724
0.00159873
0.00105763
0.00030159
-0.000499745
-0.00151693
-0.00250858
0.00298678
0.00271571
0.00229393
0.00187121
0.00133357
0.000700222
4.70407e-05
-0.000763977
-0.00164535
-0.00251886
0.00264759
0.0023953
0.00196972
0.00158973
0.00108687
0.00053572
-8.95522e-05
-0.000801795
-0.00159597
-0.00233512
0.00236981
0.00210016
0.00174136
0.00132997
0.000891294
0.000331728
-0.000241779
-0.000896021
-0.00160957
-0.00226939
0.00211051
0.00186049
0.0015066
0.00111966
0.000702948
0.000199833
-0.000336364
-0.000925125
-0.00156195
-0.00215074
0.00189046
0.00163959
0.00131772
0.000939593
0.000551231
8.34796e-05
-0.000417512
-0.000959416
-0.00152955
-0.00206745
0.00169243
0.00145558
0.00114604
0.000790461
0.000419748
-6.62357e-06
-0.000474045
-0.000974197
-0.00148038
-0.00196699
0.00152342
0.00129419
0.00100222
0.000665607
0.000314169
-8.07031e-05
-0.000513681
-0.000976282
-0.0014338
-0.00187925
0.00137523
0.00115536
0.000877464
0.00056035
0.000226662
-0.000140888
-0.000542426
-0.000968516
-0.00138568
-0.00179209
0.00124963
0.00103792
0.000774469
0.000474928
0.000158608
-0.00018613
-0.000559136
-0.000951656
-0.00133579
-0.001711
0.00114057
0.000935353
0.000684838
0.000401736
0.000101547
-0.00022277
-0.000570469
-0.000932858
-0.00128867
-0.00163604
0.0010503
0.000852131
0.00061418
0.000345867
6.04287e-05
-0.000246027
-0.000571551
-0.000908247
-0.00124049
-0.00156594
0.000971131
0.000777092
0.000549887
0.00029542
2.39977e-05
-0.000265945
-0.000571464
-0.000885815
-0.00119752
-0.00150342
0.000909712
0.000721803
0.000504666
0.00026218
2.8436e-06
-0.000273182
-0.000562347
-0.000859065
-0.00115464
-0.00144572
0.000852406
0.000666907
0.000458394
0.000227865
-1.87802e-05
-0.000280732
-0.000554531
-0.000835779
-0.00111732
-0.00139558
0.000815609
0.0006348
0.000433543
0.000211893
-2.54537e-05
-0.000277254
-0.000540042
-0.000810475
-0.00108229
-0.00135148
0.000775332
0.00059703
0.000403653
0.000193205
-3.22164e-05
-0.000272311
-0.000523916
-0.000784672
-0.00104905
-0.00131174
0.000769565
0.000592167
0.000399981
0.00019248
-2.95726e-05
-0.000265972
-0.000513653
-0.00077109
-0.00103266
-0.00129555
-0.00551988
-0.00584775
-0.00593678
-0.00600107
-0.00631581
-0.00776858
-0.0101563
-0.0124378
-0.0136946
-0.0137155
-0.012551
-0.0105494
-0.00818168
-0.00565988
-0.00330873
-0.00114932
0.000626142
0.00186023
0.00258374
0.00282147
0.00277011
0.00256129
0.0022945
0.00202252
0.00176814
0.00153988
0.00133635
0.00115414
0.00098517
0.000825771
0.000676442
0.000540038
0.00042026
0.000319697
0.000237902
0.000172779
0.000120882
7.86657e-05
4.36625e-05
1.30483e-05
-0.00566558
-0.00598029
-0.00606561
-0.00589577
-0.0067415
-0.00861251
-0.0111009
-0.0133354
-0.0145062
-0.0143928
-0.0131001
-0.010971
-0.00853111
-0.00597596
-0.00361374
-0.00145563
0.000373409
0.00166002
0.00242639
0.0027048
0.00267763
0.00248549
0.00223242
0.0019725
0.00172818
0.00150768
0.00131048
0.00113001
0.000963653
0.000807185
0.000661144
0.00052815
0.000412019
0.000314784
0.000235833
0.000172497
0.000121759
7.99856e-05
4.4804e-05
1.39312e-05
-0.00565085
-0.00591789
-0.00610546
-0.00648861
-0.00763344
-0.00982698
-0.012337
-0.0145841
-0.0157233
-0.0154777
-0.0139858
-0.0116478
-0.00908417
-0.00651921
-0.0041599
-0.00200764
-0.000117694
0.00125033
0.00208744
0.00243255
0.00245459
0.00230026
0.00207848
0.00184619
0.00162493
0.00142167
0.00123784
0.00107105
0.000916927
0.00077396
0.000640961
0.000520903
0.000414668
0.000323313
0.000246864
0.000183734
0.000131707
8.78803e-05
5.00282e-05
1.61591e-05
-0.00520187
-0.00530935
-0.00529577
-0.00610714
-0.00823966
-0.0109852
-0.0135693
-0.0158115
-0.0169162
-0.0165208
-0.0148162
-0.0123117
-0.00964604
-0.00707243
-0.00472405
-0.00260013
-0.000688166
0.000742929
0.00164221
0.00205048
0.00213635
0.00204116
0.00186884
0.00167816
0.00149133
0.00131492
0.00115138
0.00100041
0.000860486
0.000730358
0.000609776
0.000500431
0.000403328
0.000319147
0.000247141
0.000186197
0.000134613
9.04372e-05
5.16186e-05
1.66826e-05
-0.0053749
-0.00569373
-0.00541168
-0.00632435
-0.0085761
-0.0115455
-0.014201
-0.0165318
-0.0176508
-0.0172408
-0.0154361
-0.0128484
-0.0101192
-0.00756229
-0.00523971
-0.00313182
-0.00124539
0.000210767
0.00115164
0.0016063
0.00175233
0.00172609
0.00161629
0.00147628
0.00132975
0.00118534
0.00104704
0.000916423
0.000793152
0.000677457
0.000570513
0.000473155
0.000386518
0.000310567
0.000244568
0.000187494
0.000137879
9.40331e-05
5.45181e-05
1.80161e-05
-0.00466636
-0.00551296
-0.00462397
-0.00579947
-0.00845863
-0.0116654
-0.0144895
-0.0168078
-0.0178687
-0.0174221
-0.0155936
-0.0130425
-0.0103737
-0.00787487
-0.00561559
-0.00355874
-0.00171438
-0.000271747
0.000680764
0.00116515
0.00135961
0.00139851
0.00135362
0.00126833
0.00116409
0.00105184
0.000939147
0.000830006
0.000725653
0.00062589
0.0005315
0.000444103
0.000366262
0.00029752
0.000237
0.000183302
0.000135252
9.24394e-05
5.34708e-05
1.75809e-05
-0.00461039
-0.00541759
-0.00459646
-0.00556718
-0.00801588
-0.0112115
-0.0139671
-0.0161406
-0.0171499
-0.0167928
-0.0151289
-0.0127998
-0.0103314
-0.00795562
-0.00578012
-0.00380489
-0.00206256
-0.000696485
0.000225517
0.000737365
0.000985208
0.00108781
0.00110127
0.00106398
0.000998683
0.00091828
0.000831219
0.000742601
0.000654986
0.000569285
0.00048636
0.000408403
0.00033826
0.000276684
0.000222958
0.000175141
0.000131805
9.16373e-05
5.39192e-05
1.81972e-05
-0.00473146
-0.00371361
-0.00413777
-0.00509949
-0.00748787
-0.0102875
-0.0127805
-0.0147576
-0.0157554
-0.015606
-0.0142511
-0.0122508
-0.0100365
-0.00781339
-0.00574978
-0.0038892
-0.00227852
-0.00102914
-0.000196639
0.000312902
0.000612165
0.000777805
0.000853543
0.000864901
0.000833953
0.000781546
0.000719361
0.000651991
0.000581471
0.000509502
0.000438227
0.000370673
0.000309052
0.00025392
0.000204274
0.000159271
0.000118805
8.23143e-05
4.82157e-05
1.61853e-05
-0.00382164
-0.004459
-0.00501789
-0.005455
-0.00712533
-0.0096364
-0.0118509
-0.0135551
-0.0144328
-0.0142845
-0.0131359
-0.0113957
-0.00943779
-0.00741948
-0.0055099
-0.00383323
-0.0024134
-0.00128951
-0.000514427
-1.87429e-05
0.00029685
0.000492152
0.000602828
0.00065325
0.000659906
0.000636898
0.000598303
0.000551937
0.000499938
0.000442756
0.000383271
0.000326059
0.000273791
0.0002264
0.000183948
0.000146011
0.000111425
7.87223e-05
4.67642e-05
1.59492e-05
-0.00343135
-0.00403556
-0.00461498
-0.0054301
-0.00690136
-0.00891855
-0.0107266
-0.0120861
-0.0127953
-0.0126854
-0.0117168
-0.0102097
-0.00849155
-0.00674961
-0.00512902
-0.00371129
-0.00250366
-0.00152783
-0.000808289
-0.000303118
3.99384e-05
0.000258217
0.000386244
0.000452741
0.000478935
0.000480675
0.000466695
0.000441136
0.000407295
0.000366925
0.000322163
0.000276928
0.000234583
0.000195795
0.000159091
0.000124151
9.191e-05
6.29665e-05
3.70162e-05
1.21007e-05
-0.00322369
-0.00382286
-0.0045776
-0.00543557
-0.00656267
-0.00802866
-0.00937486
-0.0103802
-0.010921
-0.0108653
-0.0101069
-0.00890469
-0.00753129
-0.00611655
-0.0047727
-0.00358425
-0.00256004
-0.00170142
-0.00104469
-0.000571404
-0.000230685
8.39918e-06
0.000167459
0.000263673
0.000313637
0.00033556
0.000340556
0.000332332
0.000314169
0.000288575
0.000257593
0.000225885
0.000196377
0.000166841
0.000136631
0.000108521
8.29992e-05
5.9195e-05
3.53434e-05
1.18118e-05
-0.00299313
-0.00359602
-0.0043125
-0.00510957
-0.00601078
-0.00707868
-0.00809401
-0.00886601
-0.00929045
-0.00925077
-0.00868809
-0.00777983
-0.00670983
-0.00557422
-0.00447327
-0.00347253
-0.00259165
-0.00183494
-0.00123075
-0.000782506
-0.00045234
-0.000210499
-3.74646e-05
8.17221e-05
0.000157462
0.000201909
0.000225044
0.000232317
0.000227723
0.000213858
0.000194058
0.000172395
0.000150855
0.000128885
0.000106633
8.3819e-05
6.18718e-05
4.21954e-05
2.37265e-05
7.79298e-06
-0.00282669
-0.00339267
-0.00403587
-0.00475152
-0.00550995
-0.00633589
-0.00711242
-0.00769516
-0.00800223
-0.00796617
-0.00755213
-0.00685936
-0.00602161
-0.00511167
-0.00420085
-0.00335084
-0.00258785
-0.00192674
-0.00138527
-0.000964243
-0.000638606
-0.000388533
-0.000203424
-7.17257e-05
1.97363e-05
8.1012e-05
0.000118016
0.000137509
0.000146261
0.000147748
0.000142108
0.000130232
0.000116156
0.000101471
8.49413e-05
6.73651e-05
5.1892e-05
3.83109e-05
2.49368e-05
9.33305e-06
-0.00266671
-0.00318994
-0.00376458
-0.00439632
-0.0050469
-0.00570082
-0.00629391
-0.00673889
-0.00697895
-0.00695757
-0.00665035
-0.00611457
-0.005444
-0.00470638
-0.00395149
-0.00323265
-0.00258302
-0.00200502
-0.00150952
-0.00111028
-0.000797468
-0.00055338
-0.000365142
-0.000225249
-0.000125043
-5.30943e-05
-1.19337e-06
3.45621e-05
5.7179e-05
7.03379e-05
7.63596e-05
7.63733e-05
7.15396e-05
6.35515e-05
5.47753e-05
4.56766e-05
3.50135e-05
2.38733e-05
1.26659e-05
3.15149e-06
-0.00252172
-0.00300196
-0.00351831
-0.00406699
-0.0046237
-0.00515994
-0.00563395
-0.00598988
-0.0061766
-0.00616357
-0.00592701
-0.00550534
-0.00496323
-0.0043587
-0.0037388
-0.00313147
-0.00256161
-0.00204887
-0.00160402
-0.00123679
-0.000941419
-0.000704027
-0.000513759
-0.000363323
-0.000248077
-0.000162277
-9.82046e-05
-5.0488e-05
-1.63122e-05
7.02381e-06
2.22922e-05
3.11248e-05
3.51465e-05
3.65022e-05
3.5327e-05
3.05277e-05
2.28094e-05
1.53923e-05
8.36046e-06
2.49586e-06
-0.00238836
-0.00282493
-0.00328604
-0.00376565
-0.00424723
-0.00469789
-0.00508295
-0.00536931
-0.00552116
-0.00551353
-0.00533314
-0.0049995
-0.00456059
-0.00406367
-0.00354379
-0.00302707
-0.00253566
-0.00208547
-0.00168523
-0.00134445
-0.0010631
-0.000830655
-0.000639493
-0.000485375
-0.000363086
-0.000266816
-0.000191884
-0.000134259
-9.00599e-05
-5.61173e-05
-3.09846e-05
-1.44176e-05
-4.38113e-06
2.07247e-06
6.0103e-06
7.40774e-06
7.32962e-06
6.44327e-06
5.62598e-06
2.56251e-06
-0.00226545
-0.00266109
-0.00307511
-0.00349864
-0.00391751
-0.00430375
-0.00462612
-0.00486153
-0.00498808
-0.00498535
-0.00484463
-0.0045803
-0.00422346
-0.00381051
-0.00337267
-0.00293343
-0.00250946
-0.00211287
-0.00175235
-0.00143699
-0.0011714
-0.000948651
-0.000760139
-0.000602698
-0.000474321
-0.000369979
-0.000285048
-0.000216888
-0.000163321
-0.000120989
-8.67407e-05
-5.95831e-05
-3.93251e-05
-2.38648e-05
-1.36141e-05
-7.44747e-06
-3.80291e-06
-2.20438e-06
-1.4679e-06
-1.1258e-06
-0.00215143
-0.00251155
-0.00288493
-0.00326223
-0.00363011
-0.00396504
-0.00424085
-0.00443917
-0.00454471
-0.00454589
-0.0044369
-0.00422614
-0.0039353
-0.00359304
-0.00322495
-0.00284887
-0.00247993
-0.0021306
-0.00180805
-0.00151862
-0.00126718
-0.00105121
-0.00086496
-0.000704964
-0.000569972
-0.000457801
-0.000364738
-0.000287233
-0.000222877
-0.000170273
-0.000128804
-9.71451e-05
-7.21483e-05
-5.26241e-05
-3.67663e-05
-2.43758e-05
-1.48887e-05
-8.04486e-06
-3.15397e-06
-6.02717e-07
-0.00204668
-0.00237748
-0.00271562
-0.00305455
-0.00338098
-0.00367448
-0.0039139
-0.00408505
-0.00417786
-0.00418259
-0.00409599
-0.003927
-0.0036904
-0.00340584
-0.00309529
-0.00277459
-0.00245471
-0.00214649
-0.00185719
-0.00159185
-0.0013554
-0.00114741
-0.000964212
-0.000803939
-0.000665299
-0.000546174
-0.00044478
-0.000359591
-0.000288553
-0.000229092
-0.000178843
-0.000136784
-0.000103068
-7.64816e-05
-5.55177e-05
-3.93869e-05
-2.71088e-05
-1.77881e-05
-1.01775e-05
-3.72562e-06
-0.00195123
-0.0022573
-0.00256613
-0.00287316
-0.00316522
-0.00342537
-0.00363678
-0.003787
-0.00386902
-0.00387748
-0.00381045
-0.00367356
-0.00347949
-0.00324421
-0.00298314
-0.00270922
-0.00243246
-0.00216137
-0.00190244
-0.00165981
-0.00143721
-0.0012363
-0.00105562
-0.000893605
-0.0007498
-0.000623737
-0.000514344
-0.000419954
-0.000338773
-0.000269949
-0.000213
-0.000166547
-0.000128504
-9.71558e-05
-7.14028e-05
-5.06311e-05
-3.41298e-05
-2.12437e-05
-1.10889e-05
-3.40989e-06
-0.00186463
-0.00215095
-0.00243548
-0.00271537
-0.0029793
-0.00321229
-0.00340028
-0.00353487
-0.00360962
-0.00362082
-0.0035687
-0.00345847
-0.00329965
-0.00310468
-0.0028857
-0.0026531
-0.00241546
-0.00217887
-0.00194752
-0.00172552
-0.0015163
-0.00132164
-0.0011424
-0.000979195
-0.000831474
-0.000698688
-0.000581425
-0.000480051
-0.000393052
-0.000318097
-0.00025361
-0.000199019
-0.000153662
-0.000116698
-8.67646e-05
-6.28782e-05
-4.38233e-05
-2.86479e-05
-1.60313e-05
-5.42237e-06
-0.00178733
-0.00205754
-0.00232229
-0.00257992
-0.00282048
-0.00303102
-0.00320039
-0.00332157
-0.00339032
-0.00340417
-0.00336353
-0.0032743
-0.00314484
-0.00298395
-0.00280172
-0.0026069
-0.00240463
-0.00219885
-0.00199352
-0.00179158
-0.00159504
-0.00140592
-0.00122677
-0.00106019
-0.000907261
-0.000767923
-0.000642718
-0.000531902
-0.000434721
-0.000350894
-0.000280028
-0.000220723
-0.000171451
-0.000130587
-9.70169e-05
-6.98403e-05
-4.79574e-05
-3.05341e-05
-1.65251e-05
-5.2258e-06
-0.0017188
-0.00197646
-0.00222534
-0.00246434
-0.00268551
-0.00287804
-0.00303178
-0.00314203
-0.00320516
-0.00322018
-0.00318894
-0.0031165
-0.00301054
-0.00287963
-0.0027309
-0.00256959
-0.00239944
-0.00222397
-0.0020446
-0.00186147
-0.00167555
-0.00149046
-0.0013107
-0.00114003
-0.000980052
-0.000831859
-0.000697751
-0.000579326
-0.000475811
-0.000385442
-0.000307595
-0.000241846
-0.000187107
-0.000142017
-0.000105348
-7.59256e-05
-5.24858e-05
-3.38788e-05
-1.87683e-05
-6.2093e-06
-0.00165939
-0.00190773
-0.00214451
-0.00236831
-0.00257226
-0.00274793
-0.00288937
-0.00299008
-0.00304833
-0.00306386
-0.00303854
-0.00297927
-0.00289401
-0.00278888
-0.0026697
-0.00254088
-0.002403
-0.00225576
-0.00209938
-0.00193362
-0.00175872
-0.00157749
-0.00139497
-0.00121731
-0.00104854
-0.000891336
-0.000748161
-0.000620314
-0.000507486
-0.00040941
-0.00032548
-0.00025482
-0.000196124
-0.000147902
-0.000108819
-7.74865e-05
-5.26627e-05
-3.30394e-05
-1.76062e-05
-5.33654e-06
-0.00160879
-0.00185131
-0.00208014
-0.00229289
-0.0024837
-0.00264564
-0.00277422
-0.00286602
-0.00291889
-0.00293285
-0.0029114
-0.00286221
-0.00279295
-0.00271017
-0.00261945
-0.00252228
-0.00241537
-0.00229531
-0.00215998
-0.00200741
-0.00183739
-0.00165525
-0.0014691
-0.00128553
-0.00110866
-0.000941947
-0.00078847
-0.000651164
-0.000531024
-0.000427171
-0.000338323
-0.000263365
-0.000201206
-0.000150366
-0.000109506
-7.7076e-05
-5.1762e-05
-3.20949e-05
-1.69787e-05
-5.07395e-06
-0.00156542
-0.00180448
-0.00202763
-0.002232
-0.00241247
-0.0025649
-0.00268468
-0.00276859
-0.00281559
-0.00282687
-0.00280689
-0.00276419
-0.00270809
-0.0026446
-0.00257827
-0.00251116
-0.00243726
-0.00234535
-0.00222832
-0.00208306
-0.00191157
-0.00172236
-0.00152622
-0.00133217
-0.00114541
-0.000970109
-0.000809725
-0.000666579
-0.00054121
-0.000433136
-0.000341009
-0.000263636
-0.000199692
-0.00014781
-0.000106423
-7.38119e-05
-4.85963e-05
-2.91316e-05
-1.47154e-05
-3.75034e-06
-0.00155125
-0.00178924
-0.00200831
-0.00220634
-0.00238107
-0.0025282
-0.00264305
-0.00272262
-0.00276615
-0.00277542
-0.00275567
-0.00271542
-0.00266333
-0.00260631
-0.00254912
-0.00249287
-0.0024297
-0.00234782
-0.00223936
-0.00210062
-0.00193278
-0.00174418
-0.00154644
-0.0013494
-0.00115922
-0.000980928
-0.000817724
-0.000671991
-0.000544541
-0.000435097
-0.000341946
-0.000263879
-0.000199296
-0.000146933
-0.000105097
-7.2301e-05
-4.6986e-05
-2.77542e-05
-1.36384e-05
-3.19826e-06
)
;

boundaryField
{
    inlet
    {
        type            zeroGradient;
    }
    outlet
    {
        type            fixedValue;
        value           uniform 0;
    }
    lowerWall
    {
        type            zeroGradient;
    }
    upperWall
    {
        type            zeroGradient;
    }
    defaultFaces
    {
        type            empty;
    }
}


// ************************************************************************* //
