/*--------------------------------*- C++ -*----------------------------------*\
| =========                 |                                                 |
| \\      /  F ield         | OpenFOAM: The Open Source CFD Toolbox           |
|  \\    /   O peration     | Version:  2112                                  |
|   \\  /    A nd           | Website:  www.openfoam.com                      |
|    \\/     M anipulation  |                                                 |
\*---------------------------------------------------------------------------*/
FoamFile
{
    version     2.0;
    format      ascii;
    arch        "LSB;label=32;scalar=64";
    class       volVectorField;
    location    "0.38";
    object      U;
}
// * * * * * * * * * * * * * * * * * * * * * * * * * * * * * * * * * * * * * //

dimensions      [0 1 -1 0 0 0 0];

internalField   nonuniform List<vector> 
1880
(
(0.0989247 0.000604062 0)
(0.0984968 0.00117092 0)
(0.097162 0.00128889 0)
(0.0959808 0.00136264 0)
(0.0939494 0.00131264 0)
(0.092569 0.00143527 0)
(0.0904025 0.00136898 0)
(0.0890093 0.00148478 0)
(0.0868017 0.00133883 0)
(0.0854305 0.00152579 0)
(0.0830605 0.00130604 0)
(0.0816535 0.00152897 0)
(0.0792133 0.00122931 0)
(0.0777539 0.00163146 0)
(0.0751432 0.0012462 0)
(0.0736075 0.00166073 0)
(0.0708002 0.00124948 0)
(0.0692215 0.00171116 0)
(0.0658805 0.00147492 0)
(0.0645339 0.00180106 0)
(0.0601269 0.0016978 0)
(0.0592123 0.00185032 0)
(0.0535819 0.00199676 0)
(0.0525722 0.00242105 0)
(0.045835 0.00241888 0)
(0.0439359 0.00317738 0)
(0.0362759 0.00239611 0)
(0.0330988 0.00386489 0)
(0.0252342 0.00265117 0)
(0.0187782 0.00377134 0)
(0.099583 0.000783187 0)
(0.100713 0.00131934 0)
(0.100226 0.00175446 0)
(0.101355 0.00165494 0)
(0.100774 0.00197117 0)
(0.101464 0.00175208 0)
(0.101093 0.00225489 0)
(0.101044 0.00188058 0)
(0.101346 0.00244144 0)
(0.1003 0.00198424 0)
(0.101401 0.00257278 0)
(0.0995119 0.00215549 0)
(0.100869 0.0026941 0)
(0.0988362 0.00236416 0)
(0.0997401 0.00280082 0)
(0.0979698 0.00281365 0)
(0.0985038 0.00278766 0)
(0.0962888 0.00352108 0)
(0.0969602 0.00287675 0)
(0.0943591 0.00396847 0)
(0.094494 0.00380539 0)
(0.0920944 0.00415786 0)
(0.0912773 0.00504068 0)
(0.0878743 0.00509919 0)
(0.0884446 0.00593375 0)
(0.0814041 0.00677001 0)
(0.0842645 0.00794269 0)
(0.0738005 0.00796234 0)
(0.0763911 0.0106362 0)
(0.0620926 0.0109475 0)
(0.0998582 0.000353531 0)
(0.10022 0.000572524 0)
(0.100543 0.00104512 0)
(0.100669 0.00108938 0)
(0.101327 0.00139386 0)
(0.101015 0.00122422 0)
(0.101862 0.00181919 0)
(0.101245 0.00128035 0)
(0.102181 0.00217418 0)
(0.10145 0.00153733 0)
(0.10236 0.00217826 0)
(0.101602 0.00213463 0)
(0.102399 0.00210047 0)
(0.101751 0.00251634 0)
(0.10216 0.00268979 0)
(0.101604 0.0023195 0)
(0.102141 0.00372865 0)
(0.100804 0.0024774 0)
(0.102159 0.00430073 0)
(0.099778 0.00345143 0)
(0.101322 0.00492271 0)
(0.099164 0.0041531 0)
(0.0995921 0.0069347 0)
(0.0978062 0.00470579 0)
(0.0983575 0.00891677 0)
(0.0946398 0.00739575 0)
(0.0966491 0.0101624 0)
(0.0911689 0.010554 0)
(0.0927908 0.0149244 0)
(0.0865348 0.0129013 0)
(0.0998213 0.000457324 0)
(0.100239 0.000349278 0)
(0.100241 0.00120723 0)
(0.100434 0.000934391 0)
(0.100877 0.00157863 0)
(0.100639 0.00122873 0)
(0.101458 0.001854 0)
(0.100854 0.00144705 0)
(0.101771 0.00212973 0)
(0.101203 0.00171836 0)
(0.101896 0.00228194 0)
(0.10149 0.00214685 0)
(0.102095 0.00243274 0)
(0.101582 0.0025158 0)
(0.102276 0.0029504 0)
(0.10147 0.00262839 0)
(0.102386 0.00379299 0)
(0.101367 0.00303277 0)
(0.102148 0.0044358 0)
(0.101107 0.0040866 0)
(0.101922 0.00517487 0)
(0.100473 0.00510347 0)
(0.101373 0.00698373 0)
(0.100014 0.00627567 0)
(0.100168 0.00879443 0)
(0.0992412 0.00916079 0)
(0.0994165 0.010955 0)
(0.0970037 0.0122256 0)
(0.0986378 0.0151062 0)
(0.0955912 0.01738 0)
(0.099905 0.000283899 0)
(0.100153 0.000255628 0)
(0.100176 0.000802046 0)
(0.100334 0.00071167 0)
(0.100576 0.0012098 0)
(0.100624 0.000914073 0)
(0.101013 0.00161543 0)
(0.100916 0.00101973 0)
(0.101307 0.00198584 0)
(0.101244 0.00129084 0)
(0.101525 0.00215417 0)
(0.101479 0.00175257 0)
(0.10175 0.00241357 0)
(0.101726 0.00200947 0)
(0.101819 0.00321866 0)
(0.101871 0.00198818 0)
(0.10187 0.00414655 0)
(0.101964 0.00256943 0)
(0.101708 0.00469307 0)
(0.101955 0.00382582 0)
(0.101562 0.00553838 0)
(0.101678 0.00482932 0)
(0.101283 0.00744442 0)
(0.101402 0.00612238 0)
(0.10083 0.00939959 0)
(0.101063 0.00898983 0)
(0.10044 0.0117388 0)
(0.100482 0.0120433 0)
(0.0999343 0.0161397 0)
(0.100304 0.0159453 0)
(0.0999296 0.000267249 0)
(0.100108 0.000197342 0)
(0.100194 0.000709216 0)
(0.100203 0.000656907 0)
(0.100539 0.00105653 0)
(0.100438 0.00096941 0)
(0.100916 0.00138075 0)
(0.100784 0.00115727 0)
(0.101105 0.00174937 0)
(0.101244 0.00137719 0)
(0.101259 0.00205461 0)
(0.101518 0.00173571 0)
(0.10157 0.00238232 0)
(0.101714 0.00209137 0)
(0.101769 0.00304979 0)
(0.101921 0.00227929 0)
(0.101832 0.00392171 0)
(0.102215 0.00287424 0)
(0.101731 0.00459084 0)
(0.102263 0.00413765 0)
(0.101906 0.00542752 0)
(0.102101 0.00533941 0)
(0.101839 0.00717167 0)
(0.102167 0.00682638 0)
(0.101656 0.0090985 0)
(0.102138 0.00954343 0)
(0.101906 0.0115767 0)
(0.10187 0.0126004 0)
(0.102236 0.0152335 0)
(0.102451 0.016981 0)
(0.0999539 0.000162127 0)
(0.100092 0.000212207 0)
(0.100158 0.000519909 0)
(0.100194 0.000545804 0)
(0.100413 0.000874807 0)
(0.100424 0.000755705 0)
(0.100765 0.00124395 0)
(0.100745 0.000892141 0)
(0.101004 0.00161608 0)
(0.101185 0.00112715 0)
(0.101204 0.00191182 0)
(0.101511 0.00148846 0)
(0.101498 0.00228578 0)
(0.101815 0.00182512 0)
(0.101734 0.00297691 0)
(0.102057 0.00211 0)
(0.101957 0.00376738 0)
(0.102391 0.00280487 0)
(0.101978 0.00447257 0)
(0.102621 0.00399677 0)
(0.102263 0.00547609 0)
(0.102671 0.00516841 0)
(0.102444 0.00715048 0)
(0.102904 0.00673935 0)
(0.102578 0.00903742 0)
(0.103283 0.00927596 0)
(0.103035 0.0116056 0)
(0.103667 0.0120286 0)
(0.103754 0.0152279 0)
(0.104623 0.0157786 0)
(0.0999853 0.000107925 0)
(0.100037 0.000211144 0)
(0.10019 0.000372754 0)
(0.100123 0.000511518 0)
(0.100421 0.000652803 0)
(0.100358 0.000737477 0)
(0.100731 0.000974676 0)
(0.100725 0.000885903 0)
(0.100942 0.00135489 0)
(0.101206 0.0010795 0)
(0.10119 0.00171604 0)
(0.101513 0.00139661 0)
(0.10159 0.0020988 0)
(0.101822 0.00179945 0)
(0.1019 0.00270063 0)
(0.102157 0.00220242 0)
(0.102178 0.00344384 0)
(0.102599 0.00290444 0)
(0.102355 0.00419733 0)
(0.102907 0.0040498 0)
(0.102812 0.00522822 0)
(0.103166 0.00523383 0)
(0.103163 0.00681443 0)
(0.103618 0.00682685 0)
(0.103622 0.00862726 0)
(0.104206 0.00919949 0)
(0.104432 0.0110676 0)
(0.104989 0.0119005 0)
(0.105462 0.0141858 0)
(0.106361 0.015406 0)
(0.0999902 5.24652e-05 0)
(0.100033 0.000195252 0)
(0.100173 0.000271171 0)
(0.10013 0.000406544 0)
(0.100387 0.000533128 0)
(0.100363 0.000570945 0)
(0.100705 0.000834644 0)
(0.100722 0.000712835 0)
(0.100952 0.00116467 0)
(0.101215 0.000935054 0)
(0.101236 0.00149016 0)
(0.101567 0.00125223 0)
(0.101669 0.00187578 0)
(0.101934 0.00164802 0)
(0.102061 0.00245742 0)
(0.102301 0.00209729 0)
(0.102468 0.00315427 0)
(0.102825 0.00280703 0)
(0.10275 0.00393197 0)
(0.103283 0.00386935 0)
(0.103333 0.00498928 0)
(0.103723 0.00504693 0)
(0.103878 0.0064713 0)
(0.104367 0.00659607 0)
(0.104567 0.00822478 0)
(0.105235 0.0087458 0)
(0.105602 0.0105787 0)
(0.106355 0.0112016 0)
(0.106962 0.0134509 0)
(0.107988 0.0143305 0)
(0.100005 7.34442e-06 0)
(0.100011 0.000182716 0)
(0.100178 0.000152739 0)
(0.100123 0.000339907 0)
(0.100384 0.000354058 0)
(0.100382 0.000473928 0)
(0.100696 0.000613527 0)
(0.100762 0.000599921 0)
(0.100974 0.000920439 0)
(0.101257 0.000807177 0)
(0.101335 0.00123797 0)
(0.101609 0.00112025 0)
(0.101835 0.00158981 0)
(0.102038 0.00154698 0)
(0.102265 0.00211393 0)
(0.102504 0.0020282 0)
(0.102752 0.00278706 0)
(0.103102 0.00270506 0)
(0.103175 0.00357622 0)
(0.103657 0.00369788 0)
(0.103895 0.00461504 0)
(0.104276 0.00485458 0)
(0.104591 0.0059844 0)
(0.105094 0.00634312 0)
(0.105508 0.00763922 0)
(0.106172 0.00830275 0)
(0.106753 0.00980695 0)
(0.107566 0.0106096 0)
(0.108349 0.0123486 0)
(0.109431 0.0133832 0)
(0.100006 -2.16396e-05 0)
(0.10001 0.000137689 0)
(0.100169 7.0023e-05 0)
(0.100143 0.00022225 0)
(0.100383 0.000224563 0)
(0.100422 0.00031295 0)
(0.100714 0.000432961 0)
(0.100816 0.000434195 0)
(0.101032 0.000682178 0)
(0.101329 0.000647796 0)
(0.101442 0.000966355 0)
(0.101714 0.00094242 0)
(0.101992 0.00130545 0)
(0.102199 0.00134571 0)
(0.102485 0.00180301 0)
(0.10273 0.00182683 0)
(0.103061 0.00243369 0)
(0.103417 0.00248142 0)
(0.103583 0.00319649 0)
(0.104082 0.00340419 0)
(0.104435 0.00419604 0)
(0.104843 0.00451059 0)
(0.10528 0.00546742 0)
(0.105824 0.00589547 0)
(0.106367 0.00701611 0)
(0.107099 0.00765954 0)
(0.107788 0.00900347 0)
(0.108685 0.00974771 0)
(0.109602 0.011268 0)
(0.110722 0.0122087 0)
(0.10001 -4.97744e-05 0)
(0.100008 9.26488e-05 0)
(0.100167 -2.61572e-05 0)
(0.100169 0.000114906 0)
(0.100393 7.05525e-05 0)
(0.100479 0.000169442 0)
(0.100749 0.000232339 0)
(0.100891 0.000275996 0)
(0.101116 0.000444193 0)
(0.101415 0.000482012 0)
(0.101585 0.000698471 0)
(0.101831 0.000765663 0)
(0.102178 0.00100413 0)
(0.102391 0.00115323 0)
(0.102709 0.00146889 0)
(0.103 0.00161124 0)
(0.103374 0.00207216 0)
(0.103748 0.00222545 0)
(0.10401 0.00278864 0)
(0.104504 0.00308741 0)
(0.104974 0.00372308 0)
(0.105412 0.00413421 0)
(0.105937 0.00489238 0)
(0.10653 0.00540346 0)
(0.107185 0.00631802 0)
(0.107958 0.00698685 0)
(0.108753 0.00808961 0)
(0.1097 0.00888192 0)
(0.110724 0.0100986 0)
(0.111878 0.0110193 0)
(0.10001 -6.89174e-05 0)
(0.100015 2.33218e-05 0)
(0.100169 -0.000121264 0)
(0.100208 -3.10632e-05 0)
(0.100424 -9.55845e-05 0)
(0.100555 -2.48301e-05 0)
(0.100817 2.7835e-06 0)
(0.100994 5.53665e-05 0)
(0.101231 0.000160556 0)
(0.10154 0.000236834 0)
(0.101743 0.000380357 0)
(0.101994 0.000485111 0)
(0.102378 0.000662037 0)
(0.102614 0.000834503 0)
(0.102958 0.00108994 0)
(0.103292 0.00127043 0)
(0.103701 0.00164564 0)
(0.104107 0.00184662 0)
(0.10443 0.00230353 0)
(0.104945 0.00263699 0)
(0.105502 0.0031763 0)
(0.105974 0.00360671 0)
(0.106568 0.0042442 0)
(0.107219 0.00475401 0)
(0.107943 0.00553389 0)
(0.108769 0.0061596 0)
(0.109638 0.00710341 0)
(0.110623 0.00784838 0)
(0.111733 0.00887159 0)
(0.112914 0.00971673 0)
(0.10001 -9.01516e-05 0)
(0.100022 -4.87005e-05 0)
(0.100175 -0.000221087 0)
(0.100251 -0.000169771 0)
(0.100464 -0.00025244 0)
(0.100641 -0.000193466 0)
(0.100902 -0.000191481 0)
(0.10111 -0.000125337 0)
(0.101369 -6.53685e-05 0)
(0.101682 4.18047e-05 0)
(0.101925 0.000128811 0)
(0.102186 0.000266304 0)
(0.102598 0.000385194 0)
(0.102871 0.0005783 0)
(0.103226 0.000776529 0)
(0.103611 0.000979804 0)
(0.104051 0.00128333 0)
(0.104478 0.00150818 0)
(0.104868 0.00186525 0)
(0.105403 0.00222296 0)
(0.106024 0.002663 0)
(0.106541 0.00310046 0)
(0.10718 0.00362784 0)
(0.107883 0.00412321 0)
(0.108672 0.00477151 0)
(0.109532 0.00536163 0)
(0.110467 0.00613177 0)
(0.111477 0.00684181 0)
(0.112646 0.00768009 0)
(0.113849 0.00845044 0)
(0.10001 -0.000117361 0)
(0.100041 -0.000160263 0)
(0.100203 -0.000372587 0)
(0.100329 -0.000384671 0)
(0.100556 -0.000489916 0)
(0.100776 -0.000459256 0)
(0.101047 -0.000483214 0)
(0.101281 -0.000425022 0)
(0.101561 -0.000402177 0)
(0.101879 -0.000298632 0)
(0.102148 -0.000248429 0)
(0.102427 -0.000121036 0)
(0.102855 -3.25877e-05 0)
(0.10316 0.000140498 0)
(0.103529 0.000306081 0)
(0.103954 0.000506598 0)
(0.10442 0.000754667 0)
(0.104868 0.000977939 0)
(0.105313 0.00126731 0)
(0.105872 0.0016151 0)
(0.106543 0.00199316 0)
(0.107099 0.00239821 0)
(0.107779 0.00284924 0)
(0.108528 0.00330157 0)
(0.109368 0.00385177 0)
(0.110248 0.00438207 0)
(0.111235 0.00502886 0)
(0.11226 0.00567086 0)
(0.113479 0.00637937 0)
(0.114701 0.00705617 0)
(0.100009 -0.000140009 0)
(0.100057 -0.000248049 0)
(0.100241 -0.000478798 0)
(0.100421 -0.000520914 0)
(0.100677 -0.000626558 0)
(0.100941 -0.00060733 0)
(0.101231 -0.000643654 0)
(0.101487 -0.000595815 0)
(0.101791 -0.000598497 0)
(0.102111 -0.000504513 0)
(0.102411 -0.000482144 0)
(0.102713 -0.000361534 0)
(0.10316 -0.000294047 0)
(0.103498 -0.000139608 0)
(0.10389 2.20061e-07 0)
(0.104342 0.000192796 0)
(0.104845 0.000394574 0)
(0.105304 0.000606215 0)
(0.105813 0.000832155 0)
(0.10639 0.00115789 0)
(0.107093 0.00147389 0)
(0.107678 0.00183461 0)
(0.108404 0.00222015 0)
(0.109181 0.00262687 0)
(0.110084 0.00307584 0)
(0.110967 0.00354075 0)
(0.11201 0.00405709 0)
(0.113029 0.00462311 0)
(0.114284 0.00520995 0)
(0.115488 0.0058126 0)
(0.100008 -0.000224675 0)
(0.100104 -0.000504302 0)
(0.100338 -0.000810376 0)
(0.100588 -0.000906229 0)
(0.100879 -0.0010186 0)
(0.101174 -0.00101504 0)
(0.101487 -0.00106403 0)
(0.101751 -0.00103678 0)
(0.102085 -0.00105375 0)
(0.102397 -0.000975787 0)
(0.102738 -0.000967426 0)
(0.103057 -0.000864117 0)
(0.10353 -0.000805921 0)
(0.103871 -0.000677169 0)
(0.104302 -0.000558405 0)
(0.104755 -0.000392473 0)
(0.105304 -0.000244964 0)
(0.105747 -6.35354e-05 0)
(0.106326 0.000124506 0)
(0.106892 0.000413497 0)
(0.107639 0.000674449 0)
(0.108228 0.000970697 0)
(0.10903 0.00129665 0)
(0.109794 0.00165078 0)
(0.110767 0.00202791 0)
(0.111613 0.00243569 0)
(0.112724 0.00286785 0)
(0.113718 0.00334967 0)
(0.115051 0.00382806 0)
(0.11624 0.00432211 0)
(0.0999977 -0.000244545 0)
(0.100218 -0.000577663 0)
(0.100568 -0.000859648 0)
(0.100948 -0.000955472 0)
(0.101286 -0.00105101 0)
(0.101618 -0.0010707 0)
(0.101932 -0.00113586 0)
(0.102202 -0.00114056 0)
(0.102539 -0.00116296 0)
(0.102838 -0.00111866 0)
(0.103188 -0.00113436 0)
(0.103501 -0.00105241 0)
(0.10396 -0.00100872 0)
(0.10427 -0.000923153 0)
(0.104704 -0.000834744 0)
(0.105104 -0.000701651 0)
(0.105659 -0.000591153 0)
(0.106062 -0.00043834 0)
(0.106668 -0.000284072 0)
(0.107177 -3.68351e-05 0)
(0.107914 0.000172159 0)
(0.108474 0.000417582 0)
(0.109314 0.000701917 0)
(0.110052 0.000999618 0)
(0.111056 0.00128654 0)
(0.111885 0.00161373 0)
(0.113017 0.00194968 0)
(0.114 0.00235353 0)
(0.115347 0.00275385 0)
(0.116524 0.00318925 0)
(0.0999741 -0.000696413 0)
(0.100348 -0.0013506 0)
(0.100702 -0.00157902 0)
(0.101114 -0.00161818 0)
(0.101305 -0.00166692 0)
(0.101566 -0.00170815 0)
(0.101659 -0.00176999 0)
(0.101814 -0.00178402 0)
(0.101871 -0.00177033 0)
(0.102026 -0.00172799 0)
(0.102071 -0.00173105 0)
(0.10221 -0.00166142 0)
(0.102279 -0.00161031 0)
(0.102389 -0.00153622 0)
(0.102468 -0.00145556 0)
(0.102685 -0.00136208 0)
(0.102821 -0.00129025 0)
(0.103006 -0.00115726 0)
(0.103211 -0.00100681 0)
(0.103572 -0.000810115 0)
(0.103937 -0.000676041 0)
(0.104398 -0.000512367 0)
(0.104859 -0.000316895 0)
(0.105471 -7.66684e-05 0)
(0.106114 0.000146324 0)
(0.106951 0.00041962 0)
(0.107858 0.000659876 0)
(0.108988 0.000938317 0)
(0.110173 0.00118274 0)
(0.111541 0.00147096 0)
(0.0990199 -0.000603636 0)
(0.0984563 -0.00114294 0)
(0.0974208 -0.00128024 0)
(0.0960161 -0.00128208 0)
(0.0943621 -0.00129376 0)
(0.0927939 -0.0013209 0)
(0.0911432 -0.0013395 0)
(0.0895908 -0.00131865 0)
(0.0880039 -0.00128268 0)
(0.0865473 -0.00126916 0)
(0.0849572 -0.00123177 0)
(0.0835627 -0.00114897 0)
(0.0821084 -0.00110299 0)
(0.0808132 -0.00108222 0)
(0.0794381 -0.00104043 0)
(0.0783081 -0.000956136 0)
(0.0770832 -0.000871966 0)
(0.0761149 -0.000796079 0)
(0.0750899 -0.000745238 0)
(0.0743765 -0.000698995 0)
(0.0735372 -0.000624087 0)
(0.0730621 -0.000479923 0)
(0.0725062 -0.000330603 0)
(0.0724235 -0.00021939 0)
(0.0721839 -0.000160779 0)
(0.0724327 -0.000108051 0)
(0.0724619 -2.4456e-05 0)
(0.0730913 0.000119945 0)
(0.0734811 0.000300425 0)
(0.0745965 0.000479041 0)
(0.0124149 0.00297425 0)
(0.0415444 0.0137515 0)
(0.0329129 0.012693 0)
(0.0638542 0.026377 8.57783e-22)
(0.0475696 0.0210144 6.85474e-22)
(0.0835142 0.0347657 0)
(0.0607015 0.028318 2.92228e-22)
(0.100754 0.0409394 2.0646e-23)
(0.0762814 0.035745 6.3156e-22)
(0.12411 0.0446915 0)
(0.0663404 0.0123527 0)
(0.0752577 0.0222666 0)
(0.0789776 0.0221162 0)
(0.0898424 0.0331022 0)
(0.0932764 0.0325842 0)
(0.102915 0.0428884 1.75619e-22)
(0.10387 0.0402218 5.99289e-23)
(0.118573 0.0518451 -8.24259e-23)
(0.120134 0.045124 -4.9212e-22)
(0.135009 0.0517498 -4.72408e-22)
(0.0868982 0.0207135 0)
(0.0913418 0.0239834 0)
(0.0956237 0.0296343 0)
(0.0979774 0.0280622 0)
(0.104142 0.0377153 0)
(0.108046 0.0370167 -1.75618e-22)
(0.112468 0.0399233 -5.99287e-23)
(0.121097 0.0399879 8.2425e-23)
(0.131894 0.0474705 2.59836e-22)
(0.135688 0.0388563 4.72412e-22)
(0.0951902 0.0191524 -3.77421e-22)
(0.0975951 0.0235944 0)
(0.101671 0.0281569 -3.00834e-22)
(0.104131 0.0294198 -2.50884e-22)
(0.108012 0.0331589 -1.80398e-22)
(0.113782 0.0375108 0)
(0.118054 0.0377977 0)
(0.12298 0.0353468 1.27465e-22)
(0.132692 0.0413746 2.7224e-22)
(0.138413 0.0409361 4.21038e-22)
(0.0995882 0.0214337 3.77423e-22)
(0.101452 0.0220877 0)
(0.104422 0.0275423 3.00835e-22)
(0.108167 0.0264826 2.50885e-22)
(0.110317 0.0319231 1.80398e-22)
(0.116218 0.0329154 0)
(0.121055 0.0356139 0)
(0.125532 0.0322402 -1.27466e-22)
(0.13145 0.0360136 -2.7224e-22)
(0.138407 0.0342342 -4.21038e-22)
(0.102422 0.0197082 0)
(0.104491 0.0213859 -2.722e-22)
(0.107246 0.025352 0)
(0.11051 0.0258863 -1.77575e-22)
(0.112892 0.0286815 0)
(0.118098 0.0298999 0)
(0.122814 0.0322388 0)
(0.127166 0.0294053 -1.48256e-22)
(0.132607 0.0318252 0)
(0.138722 0.0319685 0)
(0.10479 0.0194492 2.68009e-22)
(0.106791 0.0198526 5.12749e-22)
(0.109124 0.0236581 1.99279e-22)
(0.11279 0.0235175 1.77576e-22)
(0.115373 0.026675 0)
(0.119656 0.0268777 -2.17275e-23)
(0.124114 0.0289872 0)
(0.128396 0.0268018 1.48256e-22)
(0.132578 0.0282921 0)
(0.13826 0.0270633 0)
(0.106895 0.0179429 -2.6801e-22)
(0.108888 0.0187117 -2.40548e-22)
(0.111269 0.0215483 -1.9928e-22)
(0.114479 0.0218413 0)
(0.117141 0.0240052 0)
(0.120942 0.0242341 2.17276e-23)
(0.125198 0.0258873 0)
(0.129312 0.0240759 0)
(0.1332 0.0249129 0)
(0.137977 0.0240416 0)
(0.108763 0.0167758 0)
(0.110681 0.0172244 -1.88983e-22)
(0.112945 0.0196595 0)
(0.115972 0.019788 -1.05552e-22)
(0.118722 0.0217429 0)
(0.122109 0.0216206 0)
(0.125983 0.0228218 7.80101e-23)
(0.129887 0.0216195 1.58785e-22)
(0.133278 0.0223103 0)
(0.137596 0.020408 3.33629e-22)
(0.110393 0.0152803 0)
(0.112228 0.0157978 1.88983e-22)
(0.114483 0.0177011 0)
(0.117243 0.0178807 1.05552e-22)
(0.119925 0.0193466 0)
(0.123095 0.0192877 0)
(0.126579 0.0203076 -7.80103e-23)
(0.130137 0.0190081 -1.58786e-22)
(0.133526 0.0192656 0)
(0.137316 0.0178092 -3.3363e-22)
(0.111834 0.0138182 8.79154e-23)
(0.113601 0.0142404 0)
(0.115764 0.0158103 0)
(0.118349 0.0159585 3.75243e-23)
(0.120948 0.0171593 0)
(0.123838 0.0169152 0)
(0.127063 0.0177035 0)
(0.130446 0.0167493 -7.81594e-23)
(0.133452 0.0169019 0)
(0.136687 0.0151865 0)
(0.113081 0.0123201 -7.85969e-24)
(0.114775 0.0127369 0)
(0.116858 0.0139769 5.14836e-23)
(0.119273 0.0140963 -5.74906e-24)
(0.121761 0.015045 0)
(0.124487 0.0148609 0)
(0.127414 0.0154349 -4.46081e-23)
(0.130464 0.0144747 7.81595e-23)
(0.133371 0.014456 -1.10217e-22)
(0.136349 0.0130414 -1.45165e-22)
(0.114186 0.0107881 -6.67643e-24)
(0.115835 0.0111416 0)
(0.117829 0.0121585 -5.65493e-24)
(0.120091 0.0122637 -4.67792e-24)
(0.122442 0.0129929 6.03624e-24)
(0.12499 0.0127557 1.79765e-23)
(0.127725 0.0131831 -4.90274e-25)
(0.130531 0.0124206 -7.49412e-23)
(0.13317 0.012292 4.00206e-24)
(0.135835 0.010939 6.29139e-24)
(0.115151 0.00933137 -7.33796e-23)
(0.11674 0.00966442 0)
(0.118637 0.0104824 -4.58288e-23)
(0.120773 0.01057 -2.70974e-23)
(0.123019 0.0111425 -6.03624e-24)
(0.125407 0.0109395 -3.76086e-23)
(0.127923 0.0112051 4.50985e-23)
(0.130506 0.0104975 7.49413e-23)
(0.133005 0.0103048 1.06215e-22)
(0.135458 0.00915007 1.38874e-22)
(0.116051 0.0077783 0)
(0.117607 0.00806448 0)
(0.119426 0.00872442 0)
(0.121426 0.00880323 0)
(0.123542 0.00923156 0)
(0.125775 0.00903659 1.96321e-23)
(0.128122 0.00920149 0)
(0.13049 0.00861362 0)
(0.132792 0.00838203 0)
(0.135051 0.00737151 0)
(0.116858 0.00641989 0)
(0.118346 0.00670055 0)
(0.120109 0.00724548 0)
(0.121987 0.00732878 0)
(0.124022 0.00765143 0)
(0.126101 0.00747598 1.06202e-23)
(0.128302 0.00753445 0)
(0.130483 0.00700459 0)
(0.132656 0.00673573 0)
(0.134739 0.00586791 0)
(0.117712 0.00480185 0)
(0.119101 0.00505406 0)
(0.120847 0.0054893 1.57336e-23)
(0.122517 0.00558337 0)
(0.124474 0.00582838 -8.2422e-25)
(0.126309 0.00569275 -1.06202e-23)
(0.128399 0.0057036 0)
(0.130318 0.00527443 -3.35051e-23)
(0.132382 0.00501491 0)
(0.134225 0.00430013 0)
(0.118048 0.0035984 0)
(0.119126 0.00386761 0)
(0.120911 0.00422885 -1.57337e-23)
(0.122228 0.00433707 0)
(0.124224 0.0044971 8.24224e-25)
(0.12567 0.00436577 0)
(0.127778 0.00428652 0)
(0.129263 0.00388832 3.35053e-23)
(0.13134 0.0035845 0)
(0.132701 0.0029704 0)
(0.112953 0.00173057 -6.46803e-24)
(0.113445 0.00195807 -5.10816e-24)
(0.115158 0.00222891 -3.544e-24)
(0.115872 0.00237259 0)
(0.117903 0.00249952 2.87833e-25)
(0.118749 0.0024587 0)
(0.120971 0.00238894 5.12174e-24)
(0.121762 0.00213709 0)
(0.123938 0.00189602 1.0928e-23)
(0.124391 0.00148538 1.41353e-23)
(0.0754295 0.000627474 6.46729e-24)
(0.0758554 0.000718315 5.10752e-24)
(0.0772069 0.000769406 3.54354e-24)
(0.0779471 0.000758842 0)
(0.0796479 0.000701526 -2.87791e-25)
(0.080428 0.000596786 0)
(0.0821823 0.000454943 -5.12092e-24)
(0.0826357 0.000289672 0)
(0.0841182 0.000101301 -1.0926e-23)
(0.08386 -9.15731e-05 -1.41326e-23)
(0.00926317 -0.00238625 0)
(0.0175516 0.00606909 0)
(0.00920653 0.00804259 0)
(0.0100145 0.00324089 0)
(-0.0178697 0.0152587 0)
(-0.0634744 0.0166365 0)
(-0.0933253 0.0123921 0)
(-0.119551 0.00922639 0)
(-0.13298 0.00535546 0)
(-0.137664 0.00168657 0)
(-0.134245 -0.000992168 0)
(-0.123829 -0.00349982 0)
(-0.110863 -0.00415986 0)
(-0.0921659 -0.00572206 0)
(-0.0761414 -0.00601164 0)
(-0.0525869 -0.00678655 0)
(-0.0331508 -0.00659191 0)
(-0.0108757 -0.00609586 0)
(0.0080336 -0.00513995 0)
(0.0243602 -0.00393042 0)
(0.0370816 -0.00270962 0)
(0.0467153 -0.00168986 0)
(0.0537649 -0.000889275 0)
(0.0588485 -0.000246104 0)
(0.0622564 0.000307149 0)
(0.0641878 0.00080021 0)
(0.0647239 0.00123524 0)
(0.0640628 0.00158087 0)
(0.0623388 0.00176124 0)
(0.0599106 0.00175317 0)
(0.0570809 0.00159234 0)
(0.0542709 0.00133599 0)
(0.0516641 0.00104309 0)
(0.0494675 0.000763998 0)
(0.0476783 0.000528226 0)
(0.0462765 0.000344627 0)
(0.0452576 0.000214161 0)
(0.0443856 0.000121732 0)
(0.0439212 7.05642e-05 0)
(0.043223 4.12508e-05 0)
(0.00764839 -0.0180354 0)
(0.0150513 -0.00519444 0)
(0.0180838 -0.00294712 0)
(-0.0192068 0.0172299 0)
(-0.0573926 0.0360314 0)
(-0.090343 0.0346879 0)
(-0.10839 0.0262455 0)
(-0.127842 0.0192249 0)
(-0.132186 0.00862738 0)
(-0.134208 -0.000284666 0)
(-0.125156 -0.00895886 0)
(-0.113758 -0.0143757 0)
(-0.0988647 -0.0186571 0)
(-0.0794298 -0.0202276 0)
(-0.0629567 -0.0223933 0)
(-0.0404681 -0.0243663 0)
(-0.0207484 -0.0239657 0)
(0.00140802 -0.0230184 0)
(0.0208782 -0.0201676 0)
(0.0380572 -0.0166383 0)
(0.0517645 -0.0130324 0)
(0.0625583 -0.00994872 0)
(0.070934 -0.0075058 0)
(0.0776603 -0.00558203 0)
(0.0829741 -0.00395851 0)
(0.0872614 -0.00250988 0)
(0.0906154 -0.00114231 0)
(0.0932293 0.00011675 0)
(0.0948974 0.00119124 0)
(0.0956902 0.00195458 0)
(0.0956521 0.0023993 0)
(0.0950812 0.00247834 0)
(0.0942495 0.00234437 0)
(0.0933297 0.00202429 0)
(0.0925832 0.00170807 0)
(0.0918368 0.00133983 0)
(0.0914242 0.0010958 0)
(0.090851 0.000820987 0)
(0.0906945 0.000707517 0)
(0.0901561 0.000526691 0)
(0.00393543 -0.0192992 0)
(-0.0117969 -0.000909633 0)
(-0.023406 0.0316249 0)
(-0.0407167 0.0529372 0)
(-0.0633968 0.062501 0)
(-0.0769454 0.052059 0)
(-0.0896837 0.0393635 0)
(-0.100692 0.0272712 0)
(-0.102111 0.0116019 0)
(-0.0997683 -0.00293784 0)
(-0.0902946 -0.0156527 0)
(-0.0771348 -0.023507 0)
(-0.0632623 -0.0288059 0)
(-0.0476236 -0.0325034 0)
(-0.0320107 -0.0344274 0)
(-0.0157375 -0.0374993 0)
(0.00143346 -0.0379785 0)
(0.0192151 -0.0366939 0)
(0.0353072 -0.0323589 0)
(0.049746 -0.0265794 0)
(0.0615137 -0.0206129 0)
(0.0705189 -0.01563 0)
(0.0772875 -0.0118472 0)
(0.082875 -0.00897819 0)
(0.0874152 -0.00669084 0)
(0.0911411 -0.00482379 0)
(0.0941877 -0.00315176 0)
(0.0970825 -0.00158416 0)
(0.0997818 -4.01414e-05 0)
(0.102182 0.00124499 0)
(0.10386 0.00215228 0)
(0.10479 0.00249901 0)
(0.105066 0.00246292 0)
(0.104965 0.00209841 0)
(0.104722 0.00170498 0)
(0.104482 0.00126484 0)
(0.104326 0.000966095 0)
(0.10428 0.00070024 0)
(0.104257 0.000572294 0)
(0.104345 0.000464261 0)
(0.00635387 -0.0104015 0)
(-0.0127909 0.0167262 0)
(-0.0159551 0.0219805 0)
(-0.0333077 0.0517197 0)
(-0.0487086 0.0616844 0)
(-0.0542234 0.0531637 0)
(-0.0613512 0.042132 0)
(-0.0661082 0.0286287 0)
(-0.0648936 0.00984465 0)
(-0.0599169 -0.00840272 0)
(-0.0506044 -0.0247096 0)
(-0.0385598 -0.0342733 0)
(-0.0253032 -0.0397289 0)
(-0.0119421 -0.0427319 0)
(0.000479606 -0.0449032 0)
(0.0145478 -0.0480959 0)
(0.0278732 -0.0493026 0)
(0.0416509 -0.0474216 0)
(0.0534132 -0.0423332 0)
(0.063087 -0.0354548 0)
(0.0716608 -0.027773 0)
(0.0786517 -0.0209795 0)
(0.0834423 -0.0160826 0)
(0.0873108 -0.0125756 0)
(0.090928 -0.00963501 0)
(0.0941131 -0.00718229 0)
(0.0962457 -0.0052884 0)
(0.0978458 -0.00385183 0)
(0.0994426 -0.00242518 0)
(0.101507 -0.000967784 0)
(0.103695 0.000471122 0)
(0.105699 0.00149912 0)
(0.107061 0.00209142 0)
(0.107842 0.00214641 0)
(0.108037 0.00193562 0)
(0.108005 0.00152819 0)
(0.10776 0.00114771 0)
(0.107657 0.000813332 0)
(0.107481 0.00059969 0)
(0.107532 0.000440405 0)
(0.0128709 -0.0180445 0)
(-0.0123379 0.0129533 0)
(-0.0213726 0.0407853 0)
(-0.0193988 0.067664 0)
(-0.0217642 0.0761436 0)
(-0.0187784 0.064834 0)
(-0.0237718 0.0500456 0)
(-0.0232273 0.0320864 0)
(-0.0204412 0.00951972 0)
(-0.0145316 -0.0128155 0)
(-0.00756349 -0.03117 0)
(0.000657542 -0.0424985 0)
(0.0101211 -0.0483439 0)
(0.0191204 -0.0512356 0)
(0.0295757 -0.0533211 0)
(0.0409012 -0.0563088 0)
(0.0513986 -0.0579541 0)
(0.06144 -0.0553568 0)
(0.0709338 -0.0479829 0)
(0.0765655 -0.0397453 0)
(0.0801285 -0.0317911 0)
(0.0843449 -0.0239862 0)
(0.087732 -0.0179809 0)
(0.0897789 -0.0143604 0)
(0.0917334 -0.0116357 0)
(0.0944784 -0.00874223 0)
(0.0969277 -0.00593243 0)
(0.0983157 -0.00395441 0)
(0.0987034 -0.00271693 0)
(0.0991485 -0.00182341 0)
(0.10013 -0.000826335 0)
(0.10181 0.000123575 0)
(0.103702 0.000976317 0)
(0.105503 0.00146546 0)
(0.106822 0.00165377 0)
(0.107713 0.00152904 0)
(0.108115 0.0012691 0)
(0.108327 0.000942061 0)
(0.108318 0.000690846 0)
(0.108329 0.000441411 0)
(-0.00152134 -0.00756587 0)
(-0.017571 0.0460483 0)
(0.000494982 0.0318205 0)
(0.00555062 0.0571623 0)
(0.00736186 0.0634651 0)
(0.0136136 0.0534359 0)
(0.0148081 0.0415398 0)
(0.0214514 0.0248507 0)
(0.0267682 0.00415337 0)
(0.0331317 -0.0175702 0)
(0.0383116 -0.0357089 0)
(0.0426922 -0.0466849 0)
(0.0471795 -0.0529327 0)
(0.0524463 -0.0564115 0)
(0.0595455 -0.0602454 0)
(0.0679433 -0.063322 0)
(0.0751068 -0.0641157 0)
(0.078611 -0.0616188 0)
(0.0830555 -0.0530212 0)
(0.0873158 -0.0417313 0)
(0.0876295 -0.0331164 0)
(0.0878379 -0.0261932 0)
(0.0899152 -0.0197337 0)
(0.0918447 -0.0152326 0)
(0.0926291 -0.0128272 0)
(0.0937796 -0.0107731 0)
(0.0958037 -0.00793605 0)
(0.0978781 -0.00502132 0)
(0.0987318 -0.00291485 0)
(0.0985549 -0.00190064 0)
(0.0980919 -0.00137535 0)
(0.0982956 -0.00101528 0)
(0.099302 -0.000519005 0)
(0.100993 -7.9367e-05 0)
(0.102888 0.000329333 0)
(0.104702 0.000552999 0)
(0.106141 0.000647961 0)
(0.107194 0.000616758 0)
(0.107818 0.000549474 0)
(0.108262 0.000399563 0)
(-0.0610879 -0.00784534 0)
(-0.00552194 0.00972215 0)
(-0.00945495 0.0177133 0)
(0.0301199 0.0575625 0)
(0.0464779 0.0706677 0)
(0.0615273 0.0619764 0)
(0.065972 0.0467158 0)
(0.0722112 0.0261826 0)
(0.0758725 0.00315161 0)
(0.0799103 -0.0188417 0)
(0.0806144 -0.0360286 0)
(0.0807289 -0.0474111 0)
(0.0815755 -0.0548514 0)
(0.0849462 -0.0596484 0)
(0.0914725 -0.0634722 0)
(0.0966514 -0.0667773 0)
(0.099701 -0.0661041 0)
(0.0987098 -0.0616448 0)
(0.0946503 -0.0540545 0)
(0.0938447 -0.0423626 0)
(0.0936143 -0.0316136 0)
(0.0917524 -0.0252623 0)
(0.0911532 -0.0206557 0)
(0.0926375 -0.0162027 0)
(0.0939767 -0.0129016 0)
(0.0945339 -0.0109061 0)
(0.0951857 -0.00883198 0)
(0.0967209 -0.00608422 0)
(0.0983191 -0.00326091 0)
(0.0992264 -0.00142214 0)
(0.0991404 -0.000688113 0)
(0.0987349 -0.000777071 0)
(0.0985763 -0.000988272 0)
(0.0990695 -0.00112873 0)
(0.100184 -0.000987905 0)
(0.101718 -0.000767775 0)
(0.103376 -0.000475389 0)
(0.105023 -0.000222804 0)
(0.106132 -4.01386e-05 0)
(0.107452 0.00013327 0)
(0.107002 0.0382727 0)
(0.0711519 0.0177426 0)
(0.0450147 0.00825096 0)
(0.0400027 0.019805 0)
(0.0612065 0.0394433 0)
(0.0826618 0.0413159 0)
(0.0956663 0.0340977 0)
(0.104556 0.0188607 0)
(0.109559 -5.4646e-05 0)
(0.112224 -0.019849 0)
(0.111702 -0.036575 0)
(0.110011 -0.0484348 0)
(0.110362 -0.0572742 0)
(0.112608 -0.0639284 0)
(0.116267 -0.0677111 0)
(0.118444 -0.0682955 0)
(0.11501 -0.0657652 0)
(0.109678 -0.0588862 0)
(0.103038 -0.0503828 0)
(0.097397 -0.0413328 0)
(0.0959443 -0.0315325 0)
(0.0959816 -0.0240899 0)
(0.0955809 -0.0199369 0)
(0.0957291 -0.0169716 0)
(0.0964522 -0.0140375 0)
(0.0970362 -0.0115261 0)
(0.0971575 -0.00939512 0)
(0.0976057 -0.00718804 0)
(0.0986299 -0.00465822 0)
(0.100119 -0.00244724 0)
(0.101412 -0.000967503 0)
(0.102298 -0.000543218 0)
(0.102641 -0.000702782 0)
(0.102708 -0.00122225 0)
(0.102703 -0.00161434 0)
(0.102949 -0.00180662 0)
(0.103372 -0.00179975 0)
(0.104378 -0.00143723 0)
(0.104977 -0.00126023 0)
(0.106501 -0.000601443 0)
(0.141089 0.0445878 0)
(0.131279 0.0431718 0)
(0.124012 0.0397084 0)
(0.106671 0.0387172 0)
(0.102487 0.0375985 0)
(0.110762 0.0336548 0)
(0.119621 0.0265246 0)
(0.127757 0.0141079 0)
(0.133301 -0.00210041 0)
(0.136678 -0.0207323 0)
(0.13874 -0.0361367 0)
(0.140233 -0.0477351 0)
(0.139909 -0.0573992 0)
(0.13956 -0.0637684 0)
(0.137398 -0.0666669 0)
(0.13215 -0.0655241 0)
(0.123772 -0.0601196 0)
(0.113076 -0.0523565 0)
(0.104393 -0.0439436 0)
(0.0985992 -0.0365719 0)
(0.0960599 -0.0305683 0)
(0.0967851 -0.025344 0)
(0.0989262 -0.0207522 0)
(0.100778 -0.0168601 0)
(0.101444 -0.0137551 0)
(0.101275 -0.0113602 0)
(0.100893 -0.00922895 0)