/*--------------------------------*- C++ -*----------------------------------*\
| =========                 |                                                 |
| \\      /  F ield         | OpenFOAM: The Open Source CFD Toolbox           |
|  \\    /   O peration     | Version:  2112                                  |
|   \\  /    A nd           | Website:  www.openfoam.com                      |
|    \\/     M anipulation  |                                                 |
\*---------------------------------------------------------------------------*/
FoamFile
{
    version     2.0;
    format      ascii;
    arch        "LSB;label=32;scalar=64";
    class       volScalarField;
    location    "0.18";
    object      nut;
}
// * * * * * * * * * * * * * * * * * * * * * * * * * * * * * * * * * * * * * //

dimensions      [0 2 -1 0 0 0 0];

internalField   nonuniform List<scalar> 
1880
(
3.57177e-11
4.93663e-12
3.14273e-13
3.46122e-14
8.9147e-14
5.91835e-14
3.30758e-14
1.21167e-14
2.83141e-14
1.3057e-14
9.99204e-14
9.45067e-14
5.9092e-14
1.98613e-13
6.5449e-13
1.03059e-12
8.06322e-13
6.19302e-13
4.59407e-13
5.44889e-13
6.83557e-13
6.16173e-13
4.08173e-12
1.30013e-12
4.94386e-11
8.24621e-12
4.08387e-10
2.45779e-11
1.10168e-09
1.7784e-08
4.91699e-09
5.93865e-09
1.4373e-09
6.65375e-11
3.88587e-11
7.64641e-11
2.4191e-11
1.27506e-12
2.50727e-11
2.04504e-12
3.60802e-12
2.27792e-11
1.89768e-11
3.31129e-13
7.20572e-11
3.33085e-11
9.0437e-11
1.77654e-11
1.08632e-11
3.79594e-12
1.07449e-11
1.07794e-10
8.80376e-11
8.15018e-10
6.81299e-10
1.92208e-09
4.90762e-09
1.50839e-08
1.86939e-08
5.47148e-08
2.06835e-09
1.8567e-09
9.12194e-10
5.28421e-10
5.39091e-10
1.35539e-09
4.08789e-09
7.13534e-09
2.17898e-09
1.21949e-09
1.38642e-09
3.36598e-09
1.31341e-10
8.74001e-11
9.34619e-10
5.29807e-10
4.04011e-11
3.11031e-10
1.75498e-09
4.12834e-10
7.82915e-09
2.7901e-09
8.88575e-09
1.3756e-08
6.58702e-09
2.53544e-08
1.92648e-08
2.67409e-08
3.99636e-08
3.93131e-08
3.39376e-12
4.48058e-11
8.00157e-10
1.11654e-09
5.55771e-10
3.28794e-09
6.60445e-10
4.88712e-09
1.91955e-09
1.94701e-09
6.75735e-11
1.05785e-08
2.11942e-09
1.66875e-08
2.06464e-09
4.14159e-10
2.47593e-09
3.52202e-09
3.35709e-09
7.15712e-09
8.30161e-09
1.06507e-08
1.2162e-08
1.21272e-08
1.32496e-08
1.63534e-08
2.07982e-08
3.012e-08
3.33392e-08
3.83035e-08
1.04898e-10
1.67189e-10
2.69846e-10
2.04056e-09
2.77181e-10
2.37588e-09
6.76328e-10
5.05514e-09
7.03155e-10
1.0557e-09
7.97377e-10
5.73984e-09
1.64899e-10
1.29197e-08
1.99685e-09
7.47449e-09
5.05175e-09
3.82459e-09
9.40013e-09
1.01728e-08
1.31699e-08
1.3119e-08
1.29256e-08
1.45408e-08
1.04575e-08
1.96184e-08
1.59828e-08
2.17923e-08
2.68587e-08
3.06155e-08
6.9712e-12
1.79698e-11
6.81049e-10
8.23076e-10
1.68386e-10
4.69625e-09
9.1219e-12
3.94537e-09
2.04941e-09
2.88485e-09
3.47661e-11
5.85124e-09
1.32786e-09
5.89928e-09
1.7549e-10
2.86306e-10
1.63828e-09
4.12148e-09
5.13361e-09
7.15042e-09
7.72742e-09
7.84293e-09
9.31481e-09
9.60758e-09
1.16274e-08
1.46729e-08
1.55623e-08
2.06193e-08
2.44573e-08
2.58514e-08
2.60091e-11
2.3785e-11
5.16583e-10
2.45564e-09
4.64599e-10
3.57474e-09
6.97911e-10
4.61276e-09
1.60079e-09
2.15543e-09
1.14615e-09
3.69513e-09
1.10713e-09
4.32129e-10
9.3054e-10
5.27097e-12
4.64224e-09
5.89394e-09
8.05402e-09
8.99435e-09
9.66714e-09
9.15985e-09
8.30214e-09
1.11093e-08
8.69938e-09
1.48431e-08
1.44112e-08
1.66391e-08
2.25529e-08
2.24782e-08
2.57308e-11
4.7537e-11
8.90745e-10
2.20191e-09
5.3044e-10
4.57485e-09
6.68851e-10
4.15747e-09
2.50684e-09
3.17465e-09
1.06704e-09
3.68392e-09
2.0913e-09
1.53354e-09
1.45226e-09
7.51423e-10
3.19551e-09
4.8409e-09
5.22873e-09
5.93808e-09
6.43824e-09
6.30429e-09
7.52903e-09
8.81865e-09
9.85759e-09
1.29163e-08
1.41092e-08
1.71644e-08
2.09877e-08
2.01356e-08
4.0821e-11
1.06222e-10
1.10952e-09
2.73467e-09
8.07006e-10
4.46533e-09
1.1918e-09
4.95244e-09
2.5561e-09
3.12234e-09
1.73156e-09
4.37324e-09
2.38186e-09
2.16793e-09
2.21484e-09
1.55612e-09
3.77899e-09
4.81468e-09
5.3523e-09
5.68248e-09
5.839e-09
6.49331e-09
6.48355e-09
9.34639e-09
8.98773e-09
1.19202e-08
1.31488e-08
1.42037e-08
1.86389e-08
1.86753e-08
7.81871e-11
2.35365e-10
1.38018e-09
3.07606e-09
1.03913e-09
4.63502e-09
1.48308e-09
5.16703e-09
2.85333e-09
3.45526e-09
1.99529e-09
4.30927e-09
2.76287e-09
2.73802e-09
2.66438e-09
2.31436e-09
3.67741e-09
4.41287e-09
4.67841e-09
5.09209e-09
5.40609e-09
6.14406e-09
6.85071e-09
8.25613e-09
9.15709e-09
1.11009e-08
1.28351e-08
1.41695e-08
1.67584e-08
1.70939e-08
1.59999e-10
4.41549e-10
1.63309e-09
3.26167e-09
1.21304e-09
4.89587e-09
1.61684e-09
5.03667e-09
3.1717e-09
3.87735e-09
2.12036e-09
3.94847e-09
3.07305e-09
3.26992e-09
3.03954e-09
2.83727e-09
3.80928e-09
4.47044e-09
4.50755e-09
5.08474e-09
5.10212e-09
6.37258e-09
6.77043e-09
8.27999e-09
8.80561e-09
1.02496e-08
1.18115e-08
1.27652e-08
1.50726e-08
1.6302e-08
8.73255e-11
5.70802e-10
1.68844e-09
3.50816e-09
1.40006e-09
4.67438e-09
1.90397e-09
5.46959e-09
3.06812e-09
3.75e-09
2.56996e-09
4.40077e-09
3.07765e-09
3.41092e-09
3.37377e-09
3.40426e-09
4.06121e-09
4.46155e-09
4.57617e-09
5.11159e-09
5.20763e-09
6.24021e-09
6.7733e-09
7.65205e-09
8.65592e-09
9.80554e-09
1.11708e-08
1.22337e-08
1.38101e-08
1.50985e-08
1.89007e-10
5.05241e-10
1.76726e-09
3.10889e-09
1.40925e-09
5.03209e-09
1.77882e-09
4.88876e-09
3.33756e-09
4.2607e-09
2.43332e-09
3.63356e-09
3.32888e-09
3.88869e-09
3.58935e-09
3.62581e-09
4.14674e-09
4.72021e-09
4.62542e-09
5.2515e-09
5.24024e-09
6.26538e-09
6.73941e-09
7.47863e-09
8.34031e-09
9.34191e-09
1.04342e-08
1.15701e-08
1.2789e-08
1.43334e-08
1.24543e-10
3.58582e-10
1.34284e-09
3.45727e-09
1.57956e-09
4.38816e-09
2.03654e-09
5.40824e-09
3.17338e-09
4.12347e-09
2.82013e-09
4.09811e-09
3.24997e-09
3.85173e-09
3.82199e-09
4.18991e-09
4.46915e-09
4.71487e-09
4.74658e-09
5.24989e-09
5.2395e-09
6.10087e-09
6.56094e-09
7.16049e-09
8.04719e-09
8.97947e-09
9.87939e-09
1.10357e-08
1.20911e-08
1.3364e-08
1.92941e-11
1.95205e-10
1.49975e-09
1.46213e-09
1.32048e-09
5.36318e-09
1.37545e-09
3.70715e-09
3.47474e-09
4.65948e-09
2.48323e-09
3.26928e-09
3.24121e-09
4.02099e-09
3.7865e-09
4.02051e-09
4.47999e-09
4.89255e-09
4.85454e-09
5.23182e-09
5.251e-09
5.91488e-09
6.42481e-09
6.94122e-09
7.73678e-09
8.65348e-09
9.40334e-09
1.05799e-08
1.14567e-08
1.27232e-08
1.87152e-10
4.93184e-10
1.03267e-09
2.79391e-09
1.57426e-09
3.68042e-09
2.06032e-09
5.27784e-09
2.99852e-09
3.94046e-09
2.97917e-09
3.95073e-09
3.17247e-09
3.99006e-09
4.01158e-09
4.49581e-09
4.65302e-09
4.74088e-09
4.64923e-09
5.00022e-09
4.93326e-09
5.60858e-09
6.05098e-09
6.65357e-09
7.40212e-09
8.3169e-09
9.03635e-09
1.01349e-08
1.10096e-08
1.20552e-08
7.333e-12
2.87926e-11
9.80635e-10
8.26579e-11
1.1859e-09
4.08736e-09
5.01367e-10
1.74302e-09
3.30678e-09
4.44333e-09
1.969e-09
2.42839e-09
3.38399e-09
4.35624e-09
3.8443e-09
4.06157e-09
4.36358e-09
4.50367e-09
4.39596e-09
4.46949e-09
4.59327e-09
5.11504e-09
5.71328e-09
6.33921e-09
7.06796e-09
8.00087e-09
8.70958e-09
9.76937e-09
1.05927e-08
1.15877e-08
2.34423e-09
2.33175e-09
1.70427e-09
1.52749e-09
1.80134e-09
2.74553e-09
4.6011e-09
6.35482e-09
3.20584e-09
2.86919e-09
2.76112e-09
2.90751e-09
1.11874e-09
2.23421e-10
2.80281e-10
5.27405e-09
1.51975e-08
7.15967e-09
5.15804e-09
8.42014e-10
5.90023e-11
2.65511e-11
1.73953e-10
1.18096e-09
1.63649e-09
3.48906e-09
4.31799e-09
6.23926e-09
7.1662e-09
8.92224e-09
4.99324e-09
5.71778e-09
1.26151e-09
4.33938e-11
2.27149e-11
4.94129e-11
8.512e-12
2.49396e-12
3.66828e-11
8.19888e-12
5.5734e-13
3.64211e-13
3.3457e-12
2.22716e-11
8.17292e-11
1.55005e-10
1.60624e-10
8.56158e-11
4.40919e-11
1.78382e-11
7.0338e-12
3.70526e-12
1.95622e-12
8.3338e-13
1.15585e-12
4.51394e-13
2.79492e-13
1.04935e-13
2.35345e-14
1.08442e-14
3.49912e-11
4.78056e-12
2.94459e-13
2.93901e-14
7.88644e-14
3.47712e-14
2.20704e-14
2.12124e-14
4.12439e-14
1.13138e-15
6.7101e-14
8.75168e-15
3.01495e-14
2.40801e-13
5.97641e-13
7.70151e-13
5.25493e-13
2.29424e-13
8.14109e-14
2.64388e-14
8.18359e-15
4.59225e-15
1.62271e-15
1.93041e-15
1.53262e-15
1.28399e-15
9.32201e-16
9.19129e-16
1.06438e-16
5.08756e-17
1.32907e-09
7.78745e-11
1.45401e-08
2.76485e-10
3.37221e-09
3.84807e-10
9.63333e-10
2.37635e-11
5.89013e-09
2.45174e-09
5.62178e-08
9.4948e-09
5.4771e-08
5.17221e-08
1.9751e-07
8.14665e-07
1.43678e-07
4.2702e-08
2.41672e-07
1.15081e-06
6.88369e-08
4.50116e-08
2.76899e-10
7.4826e-08
8.41687e-08
4.7691e-07
6.5843e-09
1.34746e-08
9.90603e-08
4.15688e-08
5.73389e-08
4.68504e-08
3.59838e-08
3.48387e-08
5.40013e-08
3.68972e-08
5.92709e-09
6.06815e-08
9.62451e-08
5.92233e-08
4.18312e-08
3.76333e-08
3.10131e-08
4.33841e-08
4.68853e-08
3.69007e-08
2.07859e-08
5.96824e-08
6.51051e-08
4.11211e-08
4.58895e-08
3.46807e-08
3.26861e-08
3.14332e-08
3.82444e-08
4.03404e-08
2.90223e-08
4.714e-08
5.75847e-08
4.80654e-08
3.30159e-08
2.96278e-08
2.83796e-08
3.02502e-08
3.34434e-08
3.06627e-08
3.37722e-08
3.99377e-08
4.33843e-08
3.46943e-08
3.17969e-08
2.58641e-08
2.70669e-08
2.75078e-08
3.14736e-08
3.49171e-08
2.72665e-08
3.45292e-08
3.77177e-08
3.15677e-08
2.51439e-08
2.36288e-08
2.48548e-08
2.51899e-08
2.66245e-08
2.91952e-08
2.89136e-08
2.8861e-08
2.97283e-08
2.75347e-08
2.27047e-08
2.07649e-08
2.26516e-08
2.40466e-08
2.53603e-08
2.7394e-08
2.46564e-08
2.64852e-08
2.66973e-08
2.26594e-08
1.92595e-08
1.93403e-08
2.11413e-08
2.17317e-08
2.24108e-08
2.4319e-08
2.3406e-08
2.25279e-08
2.28175e-08
2.10381e-08
1.76811e-08
1.75504e-08
1.92066e-08
2.06891e-08
2.10037e-08
2.19456e-08
2.08792e-08
2.06337e-08
2.0245e-08
1.78794e-08
1.58208e-08
1.63935e-08
1.79467e-08
1.89539e-08
1.925e-08
1.99232e-08
1.91727e-08
1.82986e-08
1.79924e-08
1.63909e-08
1.48337e-08
1.52461e-08
1.65287e-08
1.77753e-08
1.7966e-08
1.81606e-08
1.74643e-08
1.67114e-08
1.61276e-08
1.44625e-08
1.37627e-08
1.43764e-08
1.55023e-08
1.64671e-08
1.66954e-08
1.67348e-08
1.60945e-08
1.5246e-08
1.459e-08
1.31725e-08
1.31072e-08
1.36417e-08
1.4558e-08
1.53824e-08
1.56355e-08
1.55369e-08
1.49359e-08
1.41322e-08
1.33462e-08
1.19732e-08
1.24696e-08
1.30032e-08
1.38027e-08
1.44191e-08
1.46811e-08
1.45542e-08
1.40506e-08
1.32334e-08
1.24312e-08
1.10496e-08
9.8992e-09
9.30527e-09
1.02727e-08
9.55293e-09
1.02192e-08
8.7574e-09
8.71832e-09
6.37831e-09
5.73551e-09
3.58142e-09
1.39661e-13
1.36004e-12
2.58207e-12
8.89026e-12
1.59614e-11
2.76326e-11
3.40875e-11
3.84484e-11
3.46673e-11
3.07962e-11
1.73186e-15
2.8124e-15
7.05947e-15
1.08709e-14
1.79869e-14
3.62145e-14
4.41855e-14
6.70831e-14
5.78934e-14
3.99421e-14
3.56903e-09
4.03249e-08
4.34261e-09
5.99356e-09
3.28646e-09
2.373e-09
1.37481e-09
1.3796e-09
2.64099e-09
5.99817e-09
2.66266e-08
9.83207e-08
1.17217e-07
2.09841e-08
2.3544e-09
3.0788e-10
4.62655e-11
6.80719e-12
7.82613e-13
4.276e-14
3.56076e-17
2.63905e-15
8.82829e-15
1.03303e-14
7.79336e-15
4.69835e-15
2.5906e-15
1.33509e-15
6.75937e-16
3.42353e-16
1.76867e-16
9.64087e-17
5.33267e-17
3.16422e-17
1.92781e-17
1.21629e-17
8.76735e-18
4.97903e-18
4.87482e-18
1.94741e-18
2.67763e-07
6.57412e-08
1.18843e-07
1.84916e-07
1.81971e-07
3.59782e-09
9.77869e-07
7.34618e-10
5.80225e-08
1.03885e-07
1.32132e-07
1.33866e-07
1.28743e-07
1.1275e-07
9.05518e-08
6.50732e-08
3.96705e-08
1.8889e-08
6.73483e-09
1.8537e-09
4.17879e-10
7.92901e-11
1.23276e-11
1.39465e-12
8.70883e-14
6.42746e-16
6.77992e-16
3.68563e-15
4.96653e-15
4.23753e-15
3.27281e-15
2.10883e-15
1.52537e-15
9.17214e-16
7.9212e-16
4.2757e-16
4.56788e-16
2.2541e-16
2.93036e-16
1.36444e-16
1.92238e-09
2.38588e-08
1.57957e-07
1.2855e-07
2.63406e-11
2.24503e-06
2.09013e-06
1.16735e-07
6.73484e-10
2.07169e-08
5.0606e-08
6.31885e-08
7.58358e-08
8.4658e-08
8.18229e-08
7.05879e-08
5.63683e-08
4.36052e-08
3.37031e-08
2.60869e-08
1.9721e-08
1.38277e-08
8.35243e-09
3.97841e-09
1.44941e-09
4.05639e-10
1.00292e-10
2.22565e-11
4.98004e-12
1.10501e-12
2.41238e-13
5.3707e-14
9.44061e-15
2.33217e-15
5.76607e-17
2.4958e-16
5.47135e-16
8.75285e-16
2.72689e-15
1.97729e-15
1.27982e-09
4.60257e-09
6.76913e-08
2.59625e-08
1.39937e-06
3.09011e-06
2.73584e-06
5.76535e-07
1.2401e-10
1.33341e-08
4.42463e-08
5.38356e-08
5.35708e-08
5.6027e-08
5.33697e-08
4.89614e-08
4.44516e-08
3.85412e-08
3.14066e-08
2.47836e-08
1.94356e-08
1.52346e-08
1.19425e-08
9.33208e-09
7.29198e-09
5.63629e-09
4.3235e-09
3.19363e-09
2.27501e-09
1.48866e-09
9.1461e-10
4.87373e-10
2.54645e-10
1.11287e-10
4.91673e-11
1.89451e-11
6.87431e-12
2.25704e-12
4.64102e-13
1.36814e-13
2.58983e-07
1.28959e-07
7.11245e-08
1.47895e-09
1.65877e-06
3.46997e-06
3.27764e-06
1.78731e-06
2.08064e-08
8.90908e-09
6.37483e-08
9.78062e-08
9.54973e-08
8.77017e-08
7.08599e-08
4.63015e-08
2.96498e-08
2.39866e-08
2.33519e-08
2.16188e-08
1.79183e-08
1.41567e-08
1.10541e-08
8.59901e-09
6.7294e-09
5.28067e-09
4.20656e-09
3.3526e-09
2.72362e-09
2.19978e-09
1.81941e-09
1.47682e-09
1.24351e-09
1.01085e-09
8.60002e-10
7.03044e-10
6.04223e-10
4.99565e-10
4.33681e-10
3.78434e-10
1.46537e-09
1.89761e-08
1.21125e-09
3.41813e-09
1.17848e-06
3.33751e-06
3.42956e-06
2.62951e-06
2.79772e-07
5.8245e-09
4.27565e-08
8.55249e-08
7.68584e-08
1.41853e-08
1.17798e-09
2.42304e-10
2.01035e-08
2.16568e-08
1.2653e-08
1.30554e-08
1.47364e-08
1.34793e-08
1.08749e-08
8.45385e-09
6.5777e-09
5.13388e-09
4.07048e-09
3.23706e-09
2.6271e-09
2.12331e-09
1.75886e-09
1.429e-09
1.20868e-09
9.83462e-10
8.50493e-10
6.96639e-10
6.23251e-10
5.19354e-10
4.87328e-10
4.29264e-10
9.64957e-08
2.91614e-07
2.27534e-07
9.6352e-08
1.17324e-06
3.08911e-06
3.25371e-06
3.04599e-06
8.65427e-07
2.67299e-09
5.20151e-08
8.1663e-08
8.33839e-08
6.04704e-08
3.12768e-07
4.84097e-07
1.98559e-07
1.14148e-07
4.81472e-09
9.45648e-09
8.70613e-09
9.88168e-09
9.72883e-09
8.19934e-09
6.47593e-09
5.03327e-09
3.97057e-09
3.14789e-09
2.55309e-09
2.0635e-09
1.71306e-09
1.39157e-09
1.1771e-09
9.54624e-10
8.22228e-10
6.67437e-10
5.93652e-10
4.86896e-10
4.5555e-10
3.94601e-10
1.95013e-08
6.84598e-07
7.34374e-10
1.37016e-07
3.36019e-10
2.22472e-06
2.72968e-06
2.75516e-06
5.35554e-07
2.1123e-09
7.26971e-08
1.0588e-07
9.44727e-08
8.9781e-08
6.76855e-08
6.61493e-09
6.27686e-08
3.03021e-09
6.14016e-10
4.9951e-10
2.36478e-11
6.57862e-09
8.15021e-09
7.39808e-09
6.26103e-09
5.03832e-09
4.00465e-09
3.17009e-09
2.55888e-09
2.07271e-09
1.72426e-09
1.40771e-09
1.19222e-09
9.67395e-10
8.29112e-10
6.67915e-10
5.87807e-10
4.73433e-10
4.37334e-10
3.71201e-10
1.55286e-08
6.03652e-08
8.35458e-09
1.56609e-09
1.00957e-07
1.91513e-06
2.42991e-06
1.71276e-06
2.22521e-08
9.50319e-08
1.15513e-07
8.84466e-08
5.21466e-08
4.50817e-08
5.19562e-08
8.2117e-09
6.77225e-09
3.26118e-08
3.18144e-08
1.01684e-08
2.07324e-09
1.33697e-10
5.9592e-11
2.16824e-09
4.68637e-09
4.62983e-09
3.99847e-09
3.28933e-09
2.6793e-09
2.14874e-09
1.75942e-09
1.41246e-09
1.18141e-09
9.47488e-10
8.02239e-10
6.36529e-10
5.51213e-10
4.31877e-10
3.90719e-10
3.20821e-10
1.07419e-08
3.64761e-08
2.38764e-07
4.03987e-08
1.12083e-08
9.7202e-08
1.54627e-06
1.68325e-10
8.18344e-08
1.14693e-07
1.18638e-07
7.84279e-08
5.66894e-08
4.7143e-08
4.07047e-08
1.20997e-08
1.6765e-09
1.8081e-09
6.12515e-09
1.87803e-08
3.08887e-08
2.36332e-08
9.91495e-09
3.45086e-09
1.85538e-09
1.9104e-09
2.31299e-09
2.3097e-09
2.06991e-09
1.77335e-09
1.53173e-09
1.28342e-09
1.10189e-09
8.96795e-10
7.60466e-10
5.99605e-10
5.11526e-10
3.88452e-10
3.41004e-10
2.65405e-10
7.90466e-09
4.92614e-08
4.67927e-08
2.47243e-08
2.8819e-08
4.98291e-08
7.06942e-08
1.44608e-07
9.96132e-08
5.6182e-08
7.96673e-08
7.7217e-08
5.67648e-08
2.58355e-08
1.81757e-09
2.7413e-08
1.92209e-11
4.46933e-09
2.6326e-08
1.79167e-08
1.1689e-08
1.09146e-08
1.16003e-08
1.15125e-08
9.96174e-09
7.66496e-09
5.67953e-09
4.16695e-09
3.09639e-09
2.31536e-09
1.79746e-09
1.39453e-09
1.13985e-09
8.99895e-10
7.46267e-10
5.75998e-10
4.79892e-10
3.48823e-10
2.92548e-10
2.04557e-10
5.85172e-08
4.31145e-08
3.99652e-08
6.59197e-08
5.57831e-08
7.08227e-08
1.12152e-07
1.07368e-07
7.34997e-08
4.75006e-08
6.74253e-08
6.97033e-08
3.93268e-08
3.08356e-08
3.4755e-08
6.1382e-08
1.31197e-08
4.22396e-07
2.74403e-07
1.9173e-07
1.89012e-07
1.07817e-07
1.74052e-09
1.03804e-09
3.51313e-09
3.97294e-09
3.63782e-09
3.02622e-09
2.4101e-09
1.91417e-09
1.56423e-09
1.27185e-09
1.07023e-09
8.59415e-10
7.14707e-10
5.48588e-10
4.49548e-10
3.13239e-10
2.47433e-10
1.16692e-10
3.28639e-08
2.28317e-08
4.31808e-08
4.33591e-08
5.68006e-08
7.22981e-08
7.66298e-08
7.92968e-08
6.55472e-08
3.83115e-08
7.2839e-09
3.66186e-08
2.34348e-08
4.8217e-10
3.4236e-07
4.52709e-08
3.53421e-09
3.00994e-10
1.45389e-09
2.23178e-08
2.97584e-08
1.36482e-08
7.09657e-09
6.20521e-09
6.23217e-09
5.81081e-09
4.84946e-09
3.76059e-09
2.85495e-09
2.15317e-09
1.68251e-09
1.31659e-09
1.08268e-09
8.56843e-10
7.05003e-10
5.34882e-10
4.31412e-10
2.89177e-10
2.13267e-10
1.8196e-11
3.74314e-08
3.88506e-08
3.73341e-08
3.92599e-08
4.20897e-08
5.78379e-08
5.49054e-08
3.75675e-08
6.25299e-08
5.90317e-08
3.03554e-08
2.93092e-09
4.67972e-08
5.22348e-08
2.78189e-08
3.80045e-08
4.53545e-08
8.25657e-09
1.02594e-08
2.86856e-08
3.31855e-08
2.81447e-08
2.06555e-08
1.43968e-08
1.02147e-08
7.49313e-09
5.60851e-09
4.1747e-09
3.08476e-09
2.28024e-09
1.74047e-09
1.34403e-09
1.09215e-09
8.58749e-10
7.02245e-10
5.29963e-10
4.24085e-10
2.79502e-10
1.97771e-10
3.31309e-12
2.54657e-08
2.60635e-08
3.24192e-08
3.77271e-08
3.87084e-08
4.40468e-08
4.01283e-08
4.84343e-08
1.24909e-08
3.56043e-08
3.47602e-08
3.86299e-08
2.99167e-09
2.36986e-08
3.25286e-09
1.21288e-08
2.63851e-08
1.17695e-07
4.45809e-07
3.64269e-07
2.10464e-07
9.33991e-08
2.10007e-08
1.00607e-08
9.43007e-09
7.21025e-09
5.25326e-09
3.77432e-09
2.73368e-09
2.02854e-09
1.59266e-09
1.26746e-09
1.05687e-09
8.4443e-10
6.97344e-10
5.30118e-10
4.27059e-10
2.85519e-10
2.07993e-10
1.24607e-11
2.84638e-08
2.82341e-08
2.82168e-08
2.77236e-08
3.56039e-08
3.77865e-08
3.29295e-08
3.81722e-08
3.25781e-08
2.13367e-08
2.17229e-08
3.14767e-08
8.45527e-09
1.43724e-08
8.93286e-09
1.56201e-08
1.57728e-08
1.21359e-09
1.63912e-09
7.12872e-09
1.74818e-08
2.03658e-08
1.77596e-08
1.39275e-08
1.05931e-08
7.96359e-09
5.94385e-09
4.36886e-09
3.19358e-09
2.34055e-09
1.7801e-09
1.36925e-09
1.11138e-09
8.73518e-10
7.17484e-10
5.46402e-10
4.44666e-10
3.07626e-10
2.39344e-10
9.53546e-11
2.12422e-08
2.16646e-08
2.36215e-08
2.63017e-08
2.6428e-08
3.02399e-08
3.35197e-08
2.63352e-08
2.92811e-08
3.48745e-08
2.57656e-08
1.50009e-08
2.57492e-08
3.34975e-08
2.40539e-08
1.71709e-08
1.35751e-08
2.64426e-09
1.40233e-08
2.02492e-08
2.00562e-08
1.68921e-08
1.34576e-08
1.06874e-08
8.39139e-09
6.38219e-09
4.6955e-09
3.40739e-09
2.5229e-09
1.93795e-09
1.57459e-09
1.28142e-09
1.08074e-09
8.69913e-10
7.26782e-10
5.63249e-10
4.68211e-10
3.39187e-10
2.81136e-10
1.91538e-10
2.20505e-08
2.08526e-08
2.05357e-08
2.06921e-08
2.39571e-08
2.40206e-08
2.31042e-08
2.66052e-08
2.40363e-08
1.9968e-08
2.64095e-08
2.80404e-08
1.8594e-08
1.21178e-08
2.13617e-08
2.54331e-08
2.26731e-08
1.8563e-08
1.603e-08
1.57265e-08
1.50696e-08
1.38938e-08
1.23158e-08
1.04019e-08
8.45136e-09
6.62561e-09
5.07442e-09
3.80245e-09
2.85999e-09
2.1719e-09
1.72009e-09
1.36216e-09
1.12993e-09
9.01717e-10
7.55593e-10
5.9115e-10
5.00631e-10
3.77707e-10
3.28201e-10
2.52471e-10
1.74983e-08
1.7057e-08
1.73345e-08
1.78837e-08
1.88044e-08
2.03575e-08
2.08638e-08
1.94235e-08
2.08452e-08
2.2549e-08
1.93394e-08
1.84594e-08
2.17635e-08
2.17129e-08
1.943e-08
1.51535e-08
1.13539e-08
1.40481e-08
1.74525e-08
1.77961e-08
1.61205e-08
1.36331e-08
1.10805e-08
8.79362e-09
6.86654e-09
5.26821e-09
4.01492e-09
3.07023e-09
2.42328e-09
1.95461e-09
1.6315e-09
1.33785e-09
1.13267e-09
9.16777e-10
7.78597e-10
6.19108e-10
5.34789e-10
4.18061e-10
3.75703e-10
3.06301e-10
1.65945e-08
1.5584e-08
1.4985e-08
1.49019e-08
1.58581e-08
1.61626e-08
1.61756e-08
1.72332e-08
1.6854e-08
1.64159e-08
1.81019e-08
1.88323e-08
1.68648e-08
1.45584e-08
1.59572e-08
1.78489e-08
1.71013e-08
1.47213e-08
1.29218e-08
1.16717e-08
1.06908e-08
9.77401e-09
8.73567e-09
7.51928e-09
6.26744e-09
5.05167e-09
4.01992e-09
3.16277e-09
2.53589e-09
2.04039e-09
1.69167e-09
1.37694e-09
1.16449e-09
9.43805e-10
8.08071e-10
6.49921e-10
5.70449e-10
4.57985e-10
4.21135e-10
3.55068e-10
1.38392e-08
1.31449e-08
1.26793e-08
1.24476e-08
1.28134e-08
1.35464e-08
1.36747e-08
1.37732e-08
1.46697e-08
1.55619e-08
1.54651e-08
1.532e-08
1.65726e-08
1.669e-08
1.55702e-08
1.45112e-08
1.33307e-08
1.25681e-08
1.26983e-08
1.25517e-08
1.16424e-08
1.02524e-08
8.68332e-09
7.13169e-09
5.75832e-09
4.5891e-09
3.68375e-09
2.97095e-09
2.4521e-09
2.01723e-09
1.69543e-09
1.39181e-09
1.18467e-09
9.6631e-10
8.34859e-10
6.79016e-10
6.04016e-10
4.94748e-10
4.6228e-10
3.97895e-10
1.24769e-08
1.16589e-08
1.08433e-08
1.03453e-08
1.04894e-08
1.07834e-08
1.0944e-08
1.15793e-08
1.2168e-08
1.27248e-08
1.36238e-08
1.42095e-08
1.42149e-08
1.40839e-08
1.39939e-08
1.41564e-08
1.41095e-08
1.33188e-08
1.19584e-08
1.05992e-08
9.3483e-09
8.17298e-09
7.09392e-09
6.06097e-09
5.12267e-09
4.259e-09
3.55197e-09
2.93337e-09
2.45527e-09
2.02795e-09
1.71015e-09
1.40609e-09
1.20197e-09
9.83362e-10
8.56911e-10
7.01702e-10
6.32325e-10
5.23882e-10
4.97511e-10
4.32138e-10
1.09225e-08
1.00602e-08
9.24108e-09
8.64591e-09
8.53584e-09
8.92104e-09
9.20141e-09
9.65916e-09
1.05148e-08
1.15092e-08
1.22796e-08
1.26777e-08
1.32006e-08
1.37455e-08
1.3785e-08
1.33319e-08
1.26522e-08
1.18827e-08
1.10442e-08
1.01459e-08
9.18335e-09
8.11758e-09
7.00777e-09
5.91956e-09
4.94886e-09
4.08997e-09
3.39907e-09
2.79561e-09
2.33304e-09
1.91165e-09
1.60553e-09
1.30436e-09
1.11248e-09
8.88801e-10
7.81538e-10
6.14726e-10
5.70022e-10
4.46367e-10
4.52939e-10
3.70442e-10
9.96318e-09
9.05125e-09
8.14718e-09
7.44138e-09
7.15283e-09
7.31111e-09
7.48371e-09
7.75699e-09
8.11155e-09
8.37534e-09
8.44159e-09
8.32213e-09
8.10818e-09
7.88788e-09
7.69548e-09
7.46001e-09
7.166e-09
6.76125e-09
6.14786e-09
5.32292e-09
4.39758e-09
3.50073e-09
2.69537e-09
2.00055e-09
1.43126e-09
9.64593e-10
6.26832e-10
3.62319e-10
2.08947e-10
9.78893e-11
5.03189e-11
1.89889e-11
1.02656e-11
3.16286e-12
2.87339e-12
9.66578e-13
1.75765e-12
8.96998e-13
2.38405e-12
1.76332e-12
2.82618e-09
2.20619e-09
1.8228e-09
1.57108e-09
1.46006e-09
1.43702e-09
1.25363e-09
9.32375e-10
6.33039e-10
3.69389e-10
1.5541e-10
4.00383e-11
5.94443e-12
1.24632e-12
1.48671e-12
1.70139e-12
1.13874e-12
6.15655e-13
4.06583e-13
3.36584e-13
3.03092e-13
3.03875e-13
3.28825e-13
3.09212e-13
2.7067e-13
1.93158e-13
1.27619e-13
7.84819e-14
3.67648e-14
2.12965e-14
6.82664e-15
3.38554e-15
4.84386e-16
3.75483e-16
2.91629e-17
2.77255e-16
1.13009e-15
1.44829e-15
4.76843e-15
3.81341e-15
2.52803e-11
1.99609e-11
1.95983e-11
1.94496e-11
1.99009e-11
2.10544e-11
1.74961e-11
1.0281e-11
4.87967e-12
1.51081e-12
8.12336e-14
1.17314e-13
1.40306e-12
3.58342e-12
5.34082e-12
5.73008e-12
4.66871e-12
3.07345e-12
1.75693e-12
8.99e-13
4.10872e-13
1.65247e-13
5.92512e-14
1.78933e-14
4.70873e-15
8.09325e-16
8.10273e-17
4.75477e-19
1.13697e-17
4.60922e-17
1.23535e-16
1.4232e-16
1.94004e-16
1.68811e-16
2.34765e-16
1.52943e-16
2.51783e-16
1.41773e-16
2.35544e-16
1.26904e-16
2.66009e-14
1.89555e-14
2.50535e-14
2.82513e-14
3.28309e-14
3.73418e-14
2.52488e-14
9.23344e-15
1.45397e-15
1.7065e-16
9.11086e-15
4.81285e-14
9.42369e-14
1.13086e-13
9.97947e-14
6.53004e-14
3.12896e-14
1.12014e-14
3.01539e-15
5.50481e-16
4.20732e-17
1.44917e-19
1.20082e-17
4.5555e-17
7.52133e-17
8.75652e-17
8.61093e-17
7.50209e-17
6.01299e-17
4.68878e-17
3.48965e-17
2.60461e-17
1.92275e-17
1.43202e-17
1.05456e-17
7.75144e-18
6.50143e-18
3.82894e-18
4.42198e-18
1.92801e-18
)
;

boundaryField
{
    inlet
    {
        type            calculated;
        value           nonuniform List<scalar> 
20
(
1.38098e-34
4.80639e-33
3.67439e-33
1.14858e-36
4.40443e-36
9.41671e-35
1.8935e-34
4.0904e-34
6.59378e-34
9.7907e-34
1.3418e-33
1.52131e-33
1.20714e-33
4.94515e-34
1.51886e-34
2.5381e-35
5.67581e-36
4.37806e-33
4.98594e-33
1.37871e-34
)
;
    }
    outlet
    {
        type            calculated;
        value           nonuniform List<scalar> 
27
(
1.9623e-33
1.68841e-33
1.3644e-33
8.48469e-34
1.52311e-34
4.82157e-36
5.31442e-40
1.9881e-36
9.07902e-35
6.7946e-34
1.26514e-33
1.59936e-33
1.86972e-33
2.10126e-33
2.29434e-33
2.40216e-33
2.94553e-34
3.24703e-36
2.00457e-38
7.13865e-47
7.80046e-43
1.47704e-38
2.60189e-36
2.53357e-34
2.48763e-33
2.37452e-33
2.19023e-33
)
;
    }
    lowerWall
    {
        type            fixedValue;
        value           uniform 0;
    }
    upperWall
    {
        type            fixedValue;
        value           uniform 0;
    }
    defaultFaces
    {
        type            empty;
    }
}


// ************************************************************************* //
