/*--------------------------------*- C++ -*----------------------------------*\
| =========                 |                                                 |
| \\      /  F ield         | OpenFOAM: The Open Source CFD Toolbox           |
|  \\    /   O peration     | Version:  2112                                  |
|   \\  /    A nd           | Website:  www.openfoam.com                      |
|    \\/     M anipulation  |                                                 |
\*---------------------------------------------------------------------------*/
FoamFile
{
    version     2.0;
    format      ascii;
    arch        "LSB;label=32;scalar=64";
    class       volScalarField;
    location    "0.18";
    object      p;
}
// * * * * * * * * * * * * * * * * * * * * * * * * * * * * * * * * * * * * * //

dimensions      [0 2 -2 0 0 0 0];

internalField   nonuniform List<scalar> 
1880
(
0.0035414
0.00340301
0.00330844
0.00326195
0.00323627
0.00321161
0.00319018
0.00317419
0.00315371
0.00313441
0.00312364
0.00311957
0.00310695
0.00309759
0.00309003
0.00309786
0.00310828
0.00313404
0.00316585
0.00321143
0.00326636
0.00333626
0.0034171
0.00352289
0.00364287
0.00380157
0.00397889
0.00422311
0.00445417
0.00480356
0.00336025
0.0033269
0.00328376
0.00324838
0.00322151
0.00319511
0.00317614
0.00316604
0.00314769
0.00312636
0.00311423
0.00311242
0.00309977
0.00308921
0.00308118
0.00309016
0.0031018
0.00312488
0.00315651
0.00319519
0.00325115
0.00330871
0.00339272
0.0034784
0.00359427
0.00373306
0.00387214
0.00409698
0.00421305
0.00454238
0.00332699
0.00330576
0.0032725
0.003242
0.00321645
0.00318855
0.00316928
0.00316122
0.00314445
0.00312074
0.00310715
0.00310518
0.00309631
0.00308529
0.00307991
0.00308601
0.00309799
0.00311352
0.00313996
0.00317081
0.0032165
0.00326593
0.00332988
0.00340458
0.00349062
0.00359229
0.00370241
0.00381759
0.00392661
0.00399706
0.00326908
0.00325808
0.0032378
0.00321825
0.00319965
0.00317372
0.00315396
0.0031474
0.00313306
0.00310987
0.00309539
0.00309316
0.00308479
0.00307263
0.00306601
0.00306958
0.00307938
0.00308987
0.00311045
0.00313286
0.00316959
0.00320557
0.00325568
0.00331026
0.00336902
0.00344363
0.00349844
0.00357302
0.00360839
0.0036069
0.00324039
0.00323354
0.00321856
0.00320408
0.00318931
0.00316453
0.00314424
0.0031378
0.00312435
0.00310075
0.00308524
0.00308163
0.00307342
0.00305936
0.00305184
0.00305127
0.00305892
0.00306203
0.00307675
0.00308933
0.00311537
0.00313864
0.00317204
0.00320563
0.00324154
0.00327912
0.00330406
0.00332521
0.00331239
0.00326988
0.00321333
0.00320796
0.00319564
0.0031845
0.00317318
0.00315056
0.00313075
0.0031244
0.00311129
0.0030878
0.0030716
0.00306693
0.00305754
0.0030417
0.00303152
0.00302751
0.00303032
0.00302835
0.00303458
0.00304014
0.00305304
0.00306638
0.00308086
0.00309804
0.00310912
0.00311899
0.00311514
0.00309408
0.00305584
0.00297432
0.00319301
0.00318883
0.00317838
0.00316947
0.00316033
0.00313911
0.00311961
0.00311297
0.00309958
0.00307555
0.00305836
0.00305205
0.00304106
0.00302275
0.00300994
0.00300165
0.0030001
0.00299166
0.00299076
0.00298716
0.00298937
0.00299035
0.00298933
0.00298905
0.00297963
0.00296559
0.00293633
0.00288909
0.00282095
0.00271905
0.00317681
0.00317314
0.00316357
0.00315572
0.00314762
0.00312714
0.00310781
0.00310079
0.00308677
0.00306195
0.00304358
0.00303562
0.00302254
0.00300175
0.00298553
0.00297345
0.00296645
0.00295286
0.00294367
0.002933
0.00292353
0.00291424
0.00289867
0.00288191
0.00285691
0.00281965
0.00277377
0.00270278
0.00261542
0.00249766
0.00316427
0.00316082
0.00315165
0.00314432
0.00313668
0.00311644
0.00309697
0.00308937
0.00307451
0.00304858
0.00302882
0.003019
0.00300365
0.00298007
0.00296039
0.00294429
0.00293222
0.00291309
0.00289664
0.00287838
0.00285886
0.00283949
0.00281081
0.00278083
0.00274062
0.00268743
0.00262515
0.00253847
0.00243485
0.00230584
0.00315517
0.00315175
0.00314261
0.00313529
0.00312757
0.00310707
0.0030871
0.00307864
0.00306269
0.00303539
0.00301397
0.0030021
0.00298429
0.0029579
0.00293458
0.00291473
0.00289751
0.0028734
0.0028499
0.00282467
0.00279634
0.00276709
0.00272851
0.00268553
0.0026344
0.00256705
0.00249205
0.00239411
0.00227743
0.00214139
0.00314946
0.0031459
0.00313649
0.00312874
0.00312045
0.00309921
0.00307833
0.00306874
0.00305152
0.00302263
0.00299937
0.00298535
0.00296504
0.00293577
0.00290886
0.00288534
0.00286329
0.00283445
0.00280457
0.00277294
0.00273674
0.00269922
0.00265155
0.00259878
0.00253742
0.00245991
0.00237426
0.00226774
0.00214262
0.00200078
0.00314722
0.00314337
0.0031334
0.00312486
0.00311563
0.00309326
0.00307116
0.00306023
0.00304159
0.00301093
0.00298567
0.00296939
0.00294654
0.00291442
0.00288401
0.00285701
0.00283043
0.00279715
0.00276161
0.00272401
0.00268141
0.00263621
0.00258157
0.00252007
0.00245066
0.00236532
0.00227109
0.00215883
0.00202742
0.00188186
0.00314873
0.00314433
0.00313335
0.00312339
0.00311252
0.00308845
0.00306476
0.0030523
0.00303213
0.00299957
0.00297225
0.00295372
0.00292837
0.00289346
0.0028597
0.00282947
0.00279877
0.00276154
0.00272104
0.00267839
0.00263031
0.0025789
0.00251824
0.00245009
0.00237394
0.00228282
0.00218216
0.00206535
0.00193051
0.00178226
0.00315476
0.00314975
0.0031376
0.003126
0.00311322
0.00308715
0.00306167
0.00304757
0.00302562
0.00299085
0.00296118
0.00294022
0.00291231
0.00287452
0.00283753
0.00280418
0.00276972
0.00272884
0.00268412
0.00263701
0.00258449
0.00252773
0.00246228
0.00238879
0.0023073
0.00221198
0.00210649
0.00198662
0.00184972
0.00169987
0.00316521
0.00315867
0.00314404
0.00312937
0.00311336
0.00308456
0.00305715
0.00304134
0.00301747
0.00298052
0.00294882
0.00292581
0.00289556
0.00285524
0.00281544
0.00277942
0.00274175
0.00269794
0.00264988
0.00259932
0.00254337
0.00248254
0.00241337
0.00233594
0.00225036
0.00215208
0.00204327
0.00192128
0.0017835
0.00163298
0.00318468
0.0031765
0.00315883
0.00314022
0.00311993
0.00308789
0.00305867
0.00304119
0.00301509
0.00297572
0.00294197
0.00291687
0.00288419
0.00284099
0.00279788
0.00275884
0.00271794
0.00267124
0.00262035
0.00256688
0.00250825
0.00244416
0.00237213
0.00229178
0.00220318
0.00210284
0.00199182
0.00186849
0.00173059
0.00158
0.00320548
0.003193
0.0031697
0.00314546
0.00312056
0.0030863
0.0030563
0.00303704
0.00300831
0.00296688
0.00293168
0.00290438
0.00286854
0.00282216
0.00277639
0.00273529
0.00269267
0.00264496
0.00259274
0.00253776
0.0024777
0.00241163
0.00233783
0.00225564
0.002165
0.00206342
0.00195117
0.00182724
0.00168974
0.00153961
0.00325879
0.00323583
0.00319913
0.00316338
0.00313081
0.00309378
0.00306328
0.00304129
0.00300861
0.00296494
0.00292884
0.00289964
0.00286113
0.0028127
0.00276519
0.00272166
0.00267592
0.00262535
0.00257151
0.00251537
0.00245422
0.0023867
0.00231171
0.00222827
0.00213629
0.00203394
0.00192105
0.00179687
0.00166007
0.00151093
0.00328751
0.0032524
0.00320565
0.00316462
0.00313018
0.00309384
0.00306282
0.00303758
0.00300227
0.00295892
0.00292308
0.00289098
0.00284774
0.00279504
0.00274351
0.00269706
0.00265058
0.00260183
0.00255
0.00249497
0.00243459
0.00236715
0.00229221
0.00220857
0.00211596
0.00201353
0.00190063
0.0017766
0.00164057
0.0014919
0.00346701
0.00332666
0.00322818
0.00317575
0.00314217
0.00310716
0.00307301
0.00304137
0.00300299
0.00296111
0.00292545
0.00289038
0.00284546
0.00279321
0.00274114
0.00269207
0.00264316
0.0025934
0.00254133
0.00248616
0.00242564
0.00235816
0.002283
0.00219932
0.00210631
0.00200387
0.00189102
0.00176749
0.0016328
0.0014866
0.00500986
0.00422711
0.00397257
0.00350614
0.0022971
0.00178208
0.00136523
0.000292972
-0.00173341
-0.00279004
0.00445815
0.00370961
0.003394
0.0028345
0.00166334
0.00127933
0.000705573
-0.000616777
-0.00212965
-0.00338631
0.00400044
0.00350783
0.0030929
0.0026462
0.00173539
0.00119656
0.000475338
-0.000474222
-0.00178419
-0.0027705
0.00357375
0.00309902
0.00267408
0.00218662
0.00143971
0.000832635
0.000195843
-0.000714702
-0.00171018
-0.00269592
0.00319331
0.00283022
0.00240746
0.00195826
0.00134024
0.000761472
0.000120765
-0.000703519
-0.00153965
-0.0024043
0.00287463
0.00252678
0.00212786
0.00166349
0.00113609
0.000545677
-5.30495e-05
-0.000768563
-0.00148457
-0.00221751
0.00259583
0.00229314
0.00191374
0.00148859
0.00101813
0.000486163
-7.91355e-05
-0.000720129
-0.00134363
-0.00197316
0.00235818
0.00207332
0.00171839
0.00130909
0.000879536
0.000376688
-0.000149348
-0.000713134
-0.00125457
-0.00178599
0.00215524
0.00189335
0.00156063
0.00118418
0.000786186
0.000334294
-0.000146593
-0.00064702
-0.00112588
-0.00158489
0.00198296
0.00173655
0.0014264
0.00107185
0.000701746
0.000285894
-0.000156104
-0.000602132
-0.00102379
-0.00142491
0.00183832
0.00160701
0.00131632
0.000989633
0.000643514
0.00026241
-0.000135321
-0.000532792
-0.000911406
-0.00126733
0.0017173
0.00149707
0.00122739
0.000921083
0.000597344
0.000247356
-0.000115899
-0.000475406
-0.000816014
-0.00113674
0.00161688
0.00140776
0.00115482
0.000870195
0.000567338
0.000243488
-8.6965e-05
-0.0004129
-0.000723699
-0.00101581
0.00153478
0.00133404
0.00109751
0.000830969
0.00054669
0.000246559
-5.78004e-05
-0.000357744
-0.000643826
-0.000913413
0.00146838
0.00127542
0.00105203
0.000802175
0.000535203
0.000255115
-2.73207e-05
-0.000305399
-0.00057187
-0.000823115
0.00141634
0.00122943
0.00101755
0.000782163
0.000530349
0.000267263
2.40964e-06
-0.000259005
-0.000510066
-0.000747187
0.00137658
0.00119421
0.000991323
0.0007681
0.000529681
0.000281042
3.01924e-05
-0.0002181
-0.000457324
-0.000683395
0.00134944
0.0011709
0.000974864
0.000761286
0.000533783
0.000296541
5.59622e-05
-0.000183229
-0.000414015
-0.000632126
0.00133055
0.00115465
0.000963939
0.000758221
0.00053964
0.000311423
7.91276e-05
-0.000153243
-0.000378678
-0.000591297
0.00132823
0.00115487
0.000966751
0.000764266
0.000549414
0.000324996
9.65248e-05
-0.000132656
-0.000355882
-0.0005686
-0.00652547
-0.00673568
-0.00716325
-0.00846904
-0.0105829
-0.0123307
-0.0121932
-0.0101392
-0.00677928
-0.00346454
-0.000794354
0.00106619
0.00208648
0.0025243
0.0025558
0.0023893
0.00214153
0.0018805
0.00163592
0.00141781
0.00122766
0.00106329
0.000921788
0.000800204
0.000695873
0.000606251
0.000529024
0.00046184
0.000402957
0.00035088
0.000304323
0.000262314
0.000223969
0.000188647
0.000155721
0.000124782
9.53428e-05
6.71097e-05
3.97851e-05
1.31197e-05
-0.00654633
-0.00676993
-0.00724264
-0.00880448
-0.011418
-0.0134588
-0.0133137
-0.0110217
-0.00741885
-0.0038822
-0.00109683
0.000852008
0.00190043
0.00239241
0.00245662
0.00231119
0.00207949
0.00183124
0.001597
0.00138723
0.00120371
0.00104481
0.000907731
0.000789664
0.000687908
0.000600162
0.000524433
0.00045835
0.000400273
0.000348799
0.000302686
0.000261022
0.000222953
0.000187849
0.000155111
0.000124318
9.50164e-05
6.68781e-05
3.96633e-05
1.31058e-05
-0.00621896
-0.00684016
-0.00764127
-0.00981757
-0.0131751
-0.0156734
-0.0155398
-0.0127678
-0.00861728
-0.00469334
-0.00166673
0.000389987
0.00154216
0.00210163
0.00222646
0.00212548
0.00193165
0.00171584
0.00150862
0.00132076
0.00115443
0.00100856
0.000881178
0.000770233
0.000673875
0.000590033
0.000516654
0.000452399
0.00039564
0.000345158
0.000299816
0.000258751
0.000221176
0.000186475
0.000154088
0.000123584
9.45326e-05
6.66564e-05
3.96058e-05
1.31474e-05
-0.00622716
-0.00700921
-0.00797045
-0.0106602
-0.0148628
-0.0179724
-0.0178109
-0.0146646
-0.00991336
-0.00560951
-0.00239212
-0.000218966
0.00103706
0.00168144
0.00189084
0.00185651
0.00172026
0.00155445
0.00138756
0.00123046
0.00108692
0.000957801
0.00084275
0.000740955
0.000651315
0.000572431
0.000502869
0.000441479
0.000386941
0.000338183
0.000294211
0.000254241
0.000217566
0.000183609
0.000151853
0.000121887
9.3309e-05
6.58375e-05
3.91445e-05
1.3011e-05
-0.00544388
-0.00711416
-0.0080573
-0.0112761
-0.0159748
-0.0193414
-0.019266
-0.0158969
-0.0108664
-0.00640342
-0.00312473
-0.000927069
0.00040413
0.00112803
0.00143809
0.0015037
0.00145001
0.0013496
0.00123352
0.00111529
0.00100051
0.000892413
0.000792823
0.000702471
0.000621367
0.000548957
0.000484395
0.000426804
0.000375206
0.000328746
0.000286604
0.000248106
0.000212637
0.000179682
0.000148775
0.000119538
9.15984e-05
6.4681e-05
3.84852e-05
1.28036e-05
-0.00551592
-0.0067429
-0.00754099
-0.0107934
-0.0157964
-0.0192422
-0.0194477
-0.0163989
-0.0114704
-0.00690297
-0.00360174
-0.00144554
-0.000145503
0.000560464
0.000906406
0.00106712
0.00112843
0.00112051
0.00106632
0.000989673
0.00090502
0.00081928
0.000736316
0.000658434
0.000586751
0.000521513
0.000462463
0.000409138
0.000360895
0.000317104
0.00027712
0.000240389
0.000206388
0.000174669
0.000144815
0.00011649
8.9351e-05
6.3145e-05
3.75957e-05
1.25126e-05
-0.00517899
-0.00734451
-0.00699837
-0.00994753
-0.0141536
-0.0175424
-0.0182826
-0.0159375
-0.0115146
-0.00707238
-0.00382043
-0.00172462
-0.000446076
0.000234717
0.000561481
0.000724863
0.000821819
0.000874512
0.0008839
0.00085503
0.000802726
0.000739876
0.000673755
0.000608515
0.0005466
0.000489086
0.000436237
0.000387899
0.000343664
0.00030309
0.000265711
0.000231109
0.000198872
0.000168632
0.000140038
0.0001128
8.66186e-05
6.12684e-05
3.65028e-05
1.21519e-05
-0.00551253
-0.00548434
-0.00677999
-0.00883825
-0.0122861
-0.0152855
-0.0161459
-0.0143955
-0.0106525
-0.00672155
-0.00378053
-0.00191171
-0.000700798
3.82495e-06
0.000361178
0.000531231
0.000633806
0.00070486
0.000734066
0.00072775
0.000699382
0.00065714
0.000608187
0.000556391
0.000504883
0.000455374
0.000408677
0.000365155
0.000324802
0.000287453
0.000252787
0.000220475
0.000190177
0.000161597
0.000134438
0.000108453
8.33847e-05
5.90385e-05
3.51995e-05
1.17204e-05
-0.00455429
-0.00614462
-0.00708187
-0.00809099
-0.0105042
-0.0128594
-0.0135124
-0.0119841
-0.0089041
-0.00580959
-0.00344467
-0.00193777
-0.000921272
-0.000262621
0.000127829
0.000359697
0.000495516
0.000577881
0.000619161
0.000627008
0.000609915
0.000578666
0.000540553
0.000498727
0.000456188
0.000414563
0.000374842
0.00033737
0.000302112
0.000268933
0.000237656
0.000208115
0.000180119
0.000153479
0.000127981
0.000103441
7.96527e-05
5.64617e-05
3.36911e-05
1.122e-05
-0.00396305
-0.00513406
-0.00600779
-0.00706421
-0.00868282
-0.0102299
-0.010616
-0.00946623
-0.00728551
-0.00505496
-0.00324043
-0.00198147
-0.00110684
-0.000502975
-0.000109266
0.000152563
0.000335422
0.000445799
0.000497176
0.00050923
0.000508657
0.000498352
0.000475017
0.000444635
0.000412276
0.000378817
0.000345206
0.000312334
0.000280742
0.000250718
0.000222261
0.000195248
0.000169489
0.000144807
0.000121031
9.80157e-05
7.55969e-05
5.36535e-05
3.20443e-05
1.06735e-05
-0.0035199
-0.00448949
-0.00543749
-0.0062275
-0.0072112
-0.00809501
-0.00817342
-0.00732667
-0.00596738
-0.00444893
-0.00303877
-0.00194185
-0.00117673
-0.000655246
-0.000287325
-2.2817e-05
0.000135136
0.000227653
0.000318664
0.000410478
0.000453855
0.000446554
0.000417983
0.000391361
0.000362525
0.000334127
0.000306751
0.000280248
0.000254475
0.000229356
0.000204878
0.000181064
0.000157929
0.000135451
0.000113568
9.22052e-05
7.12577e-05
5.06497e-05
3.02824e-05
1.00884e-05
-0.00310835
-0.00389345
-0.00466129
-0.00527067
-0.00592977
-0.00643243
-0.00650979
-0.00593563
-0.00498022
-0.00388336
-0.0028145
-0.00193314
-0.00127466
-0.000796715
-0.000441207
-0.000184072
-4.22187e-05
4.17932e-05
0.000122336
0.000197934
0.000256795
0.000303965
0.000328958
0.000331193
0.000320506
0.000302018
0.000279986
0.000256792
0.000233539
0.000210787
0.000188694
0.000167254
0.000146366
0.000125941
0.000105901
8.61933e-05
6.67481e-05
4.7519e-05
2.8443e-05
9.47759e-06
-0.00277004
-0.00338898
-0.00402031
-0.00453926
-0.00500121
-0.00532579
-0.00534263
-0.00493713
-0.0042367
-0.00343867
-0.00263154
-0.00190577
-0.00132907
-0.000888266
-0.000535965
-0.000257721
-8.2108e-05
5.80158e-06
8.17291e-05
0.000175984
0.00024334
0.000271206
0.000278999
0.000273465
0.000262579
0.000249636
0.000235507
0.000220393
0.000204356
0.00018749
0.000169996
0.000152107
0.000134051
0.000115966
9.79307e-05
7.99751e-05
6.20955e-05
4.42928e-05
2.65482e-05
8.84808e-06
-0.00245961
-0.00296135
-0.00346859
-0.00389772
-0.00425453
-0.00446992
-0.00444839
-0.00416335
-0.00366009
-0.00303848
-0.00240685
-0.00182791
-0.00133152
-0.000934515
-0.000633438
-0.00039685
-0.000258399
-0.000170975
-4.67225e-05
9.84635e-05
0.000195999
0.000235595
0.000245909
0.000244553
0.000237691
0.000227333
0.000214545
0.000200254
0.000185117
0.000169621
0.000153957
0.000138178
0.000122264
0.000106209
9.00304e-05
7.37611e-05
5.74233e-05
4.10439e-05
2.46373e-05
8.21329e-06
-0.00219144
-0.00260453
-0.003021
-0.00338156
-0.00365959
-0.00382212
-0.00381377
-0.00359892
-0.00320695
-0.00272822
-0.00223329
-0.00176502
-0.00134629
-0.00098858
-0.000680725
-0.000441168
-0.000299741
-0.000211663
-0.000122458
-3.45326e-05
3.94413e-05
9.31325e-05
0.00012892
0.000150364
0.000161712
0.000166205
0.000165908
0.000162008
0.000155254
0.000146178
0.000135304
0.000123108
0.000110002
9.62574e-05
8.20605e-05
6.75297e-05
5.27525e-05
3.78007e-05
2.27309e-05
7.57983e-06
-0.00194736
-0.00229851
-0.0026409
-0.00293966
-0.00317878
-0.00330716
-0.00328695
-0.00312885
-0.00284852
-0.00247274
-0.00205691
-0.00166091
-0.0013122
-0.00101386
-0.000771519
-0.000571736
-0.000395603
-0.000249543
-0.000118644
-1.70513e-05
5.39985e-05
9.90703e-05
0.000126354
0.000141949
0.000149511
0.000151413
0.000149262
0.000144311
0.000137416
0.00012918
0.00011988
0.00010965
9.85871e-05
8.67883e-05
7.43795e-05
6.14794e-05
4.81983e-05
3.46312e-05
2.08657e-05
6.96015e-06
-0.00173877
-0.00204027
-0.00233133
-0.00258961
-0.00278777
-0.00289856
-0.00289523
-0.00276842
-0.00254359
-0.00224982
-0.00192498
-0.00160476
-0.00130479
-0.00103038
-0.000786187
-0.00058792
-0.000435623
-0.000316572
-0.00022283
-0.00013983
-6.97945e-05
-1.49802e-05
2.66911e-05
5.77081e-05
8.00446e-05
9.53183e-05
0.000104847
0.0001096
0.000110376
0.000107863
0.000102765
9.56943e-05
8.71511e-05
7.74624e-05
6.68847e-05
5.56048e-05
4.37875e-05
3.15652e-05
1.90625e-05
6.36102e-06
-0.00155302
-0.00181816
-0.00206968
-0.00228921
-0.00246249
-0.00256269
-0.00256369
-0.00247052
-0.00229976
-0.00206593
-0.00179648
-0.0015209
-0.00126202
-0.00102776
-0.000829412
-0.000655753
-0.000496672
-0.000363091
-0.000246156
-0.000149019
-7.39303e-05
-1.87537e-05
2.095e-05
4.90661e-05
6.83836e-05
8.10152e-05
8.85712e-05
9.23399e-05
9.32117e-05
9.17888e-05
8.84006e-05
8.32817e-05
7.66705e-05
6.87787e-05
5.9843e-05
5.00581e-05
3.96117e-05
2.86589e-05
1.73522e-05
5.7929e-06
-0.00139443
-0.00163116
-0.00185374
-0.00204859
-0.00220212
-0.00229246
-0.00230301
-0.00223292
-0.00209775
-0.00190917
-0.00168732
-0.00146168
-0.00124577
-0.00103767
-0.000843569
-0.000669591
-0.000525177
-0.000405416
-0.000307989
-0.000225294
-0.00015542
-9.80551e-05
-5.15689e-05
-1.43079e-05
1.50007e-05
3.73702e-05
5.36986e-05
6.47441e-05
7.12668e-05
7.4031e-05
7.38027e-05
7.11865e-05
6.66653e-05
6.05758e-05
5.32292e-05
4.48639e-05
3.5708e-05
2.59445e-05
1.57558e-05
5.26276e-06
-0.00125627
-0.00147169
-0.00167168
-0.00184487
-0.00198139
-0.00206725
-0.00208529
-0.00203413
-0.00192802
-0.00177796
-0.00159703
-0.00140216
-0.00120795
-0.00102561
-0.000857231
-0.000707069
-0.00057133
-0.000450715
-0.000344626
-0.000252197
-0.000175814
-0.000114799
-6.68492e-05
-2.96217e-05
-1.11728e-06
2.03614e-05
3.62116e-05
4.75569e-05
5.51704e-05
5.95898e-05
6.12324e-05
6.04657e-05
5.76627e-05
5.31362e-05
4.72058e-05
4.01242e-05
3.21431e-05
2.34657e-05
1.42983e-05
4.77903e-06
-0.00113871
-0.00133838
-0.00152127
-0.00167921
-0.00180425
-0.00188471
-0.00190841
-0.00187388
-0.00179197
-0.00166941
-0.00151628
-0.00135123
-0.00118858
-0.00102898
-0.000873373
-0.00072657
-0.000594294
-0.000480366
-0.000381533
-0.000297376
-0.000225515
-0.00016468
-0.000113706
-7.14363e-05
-3.69305e-05
-9.42671e-06
1.18222e-05
2.75566e-05
3.85957e-05
4.57093e-05
4.95656e-05
5.06841e-05
4.95238e-05
4.64448e-05
4.18045e-05
3.58824e-05
2.89581e-05
2.12546e-05
1.29999e-05
4.34855e-06
-0.00103802
-0.00122633
-0.00139619
-0.00154148
-0.00165718
-0.0017343
-0.00176343
-0.00174163
-0.0016771
-0.00157778
-0.00145199
-0.0013117
-0.00116618
-0.00102064
-0.000879691
-0.000746524
-0.000625278
-0.000515802
-0.000417304
-0.000329642
-0.000253303
-0.000188823
-0.000135344
-9.14871e-05
-5.59219e-05
-2.74321e-05
-4.95983e-06
1.2338e-05
2.51447e-05
3.40437e-05
3.95858e-05
4.22459e-05
4.24751e-05
4.06408e-05
3.71181e-05
3.22053e-05
2.62015e-05
1.9345e-05
1.18808e-05
3.97833e-06
-0.000953754
-0.00113425
-0.00129522
-0.00143246
-0.00153968
-0.00161341
-0.00164583
-0.00163441
-0.00158576
-0.00150542
-0.00139914
-0.00127734
-0.00115033
-0.00102226
-0.00089404
-0.000768839
-0.000650876
-0.000542698
-0.000445275
-0.000358667
-0.000283284
-0.00021851
-0.000163269
-0.00011666
-7.79323e-05
-4.63558e-05
-2.11321e-05
-1.48256e-06
1.33438e-05
2.39933e-05
3.10771e-05
3.51051e-05
3.65402e-05
3.5772e-05
3.3197e-05
2.91394e-05
2.39131e-05
1.77677e-05
1.09609e-05
3.67642e-06
-0.000884057
-0.00105926
-0.0012133
-0.00134332
-0.00144528
-0.00151642
-0.00155166
-0.00154892
-0.00151246
-0.00144692
-0.00135776
-0.00125363
-0.00114179
-0.00102519
-0.000905888
-0.000787625
-0.000674555
-0.000569421
-0.000473193
-0.000386237
-0.000309164
-0.000241932
-0.000184174
-0.000135261
-9.44391e-05
-6.0901e-05
-3.38301e-05
-1.24806e-05
3.88789e-06
1.59188e-05
2.42445e-05
2.93958e-05
3.1815e-05
3.19107e-05
3.00941e-05
2.67294e-05
2.21294e-05
1.6551e-05
1.0259e-05
3.45167e-06
-0.000828633
-0.00100143
-0.00115129
-0.00127563
-0.00137304
-0.00144176
-0.0014785
-0.00148206
-0.00145576
-0.00140346
-0.00132913
-0.0012389
-0.00113876
-0.00103208
-0.000920888
-0.00080834
-0.000698338
-0.000593976
-0.000497125
-0.000408915
-0.000330146
-0.000261031
-0.000201308
-0.000150443
-0.000107733
-7.2419e-05
-4.37285e-05
-2.09387e-05
-3.30919e-06
9.80738e-06
1.9087e-05
2.51221e-05
2.82906e-05
2.90421e-05
2.77803e-05
2.49622e-05
2.08428e-05
1.56928e-05
9.76924e-06
3.30183e-06
-0.000785056
-0.000956862
-0.00110545
-0.00122722
-0.00132136
-0.00138759
-0.00142511
-0.00143384
-0.00141542
-0.0013728
-0.00131058
-0.00123356
-0.00114506
-0.00104702
-0.000941623
-0.000832287
-0.000723142
-0.000617892
-0.000519212
-0.000428798
-0.000347662
-0.000276228
-0.000214317
-0.000161463
-0.000117024
-8.02228e-05
-5.02748e-05
-2.63852e-05
-7.76857e-06
6.20035e-06
1.61889e-05
2.26367e-05
2.62625e-05
2.74632e-05
2.67023e-05
2.41586e-05
2.03004e-05
1.53739e-05
9.64036e-06
3.31497e-06
-0.000764972
-0.000937336
-0.00108379
-0.00120348
-0.0012959
-0.00136065
-0.00139805
-0.00140891
-0.00139411
-0.00135623
-0.00129975
-0.00122864
-0.00114528
-0.00105148
-0.000949557
-0.000842732
-0.00073482
-0.000629667
-0.000530405
-0.000439044
-0.000356766
-0.000284061
-0.000221008
-0.000167139
-0.00012182
-8.4252e-05
-5.36503e-05
-2.91967e-05
-1.01273e-05
4.22208e-06
1.45216e-05
2.12847e-05
2.51559e-05
2.6569e-05
2.59712e-05
2.36122e-05
1.99149e-05
1.51137e-05
9.49794e-06
3.29212e-06
)
;

boundaryField
{
    inlet
    {
        type            zeroGradient;
    }
    outlet
    {
        type            fixedValue;
        value           uniform 0;
    }
    lowerWall
    {
        type            zeroGradient;
    }
    upperWall
    {
        type            zeroGradient;
    }
    defaultFaces
    {
        type            empty;
    }
}


// ************************************************************************* //
