/*--------------------------------*- C++ -*----------------------------------*\
| =========                 |                                                 |
| \\      /  F ield         | OpenFOAM: The Open Source CFD Toolbox           |
|  \\    /   O peration     | Version:  2112                                  |
|   \\  /    A nd           | Website:  www.openfoam.com                      |
|    \\/     M anipulation  |                                                 |
\*---------------------------------------------------------------------------*/
FoamFile
{
    version     2.0;
    format      ascii;
    arch        "LSB;label=32;scalar=64";
    class       surfaceScalarField;
    location    "0.18";
    object      phi;
}
// * * * * * * * * * * * * * * * * * * * * * * * * * * * * * * * * * * * * * //

dimensions      [0 3 -1 0 0 0 0];

oriented        oriented;

internalField   nonuniform List<scalar> 
3653
(
9.92664e-07
7.33562e-09
9.79146e-07
1.35184e-08
9.64035e-07
1.51114e-08
9.48487e-07
1.55473e-08
9.32667e-07
1.58201e-08
9.15992e-07
1.6675e-08
8.97907e-07
1.80846e-08
8.79706e-07
1.82016e-08
8.62425e-07
1.72813e-08
8.45844e-07
1.65801e-08
8.27801e-07
1.80431e-08
8.09371e-07
1.843e-08
7.89383e-07
1.99881e-08
7.7188e-07
1.75029e-08
7.53583e-07
1.82976e-08
7.41171e-07
1.24117e-08
7.27229e-07
1.39424e-08
7.19795e-07
7.43365e-09
7.08374e-07
1.14209e-08
7.01702e-07
6.67263e-09
6.89744e-07
1.19576e-08
6.80434e-07
9.30965e-09
6.64648e-07
1.57868e-08
6.49478e-07
1.51697e-08
6.27453e-07
2.20244e-08
5.98369e-07
2.90843e-08
5.68431e-07
2.9938e-08
5.09832e-07
5.85995e-08
4.55987e-07
5.38445e-08
1.02353e-07
3.53634e-07
1.00296e-06
4.37883e-09
1.00653e-06
9.9468e-09
1.00897e-06
1.26685e-08
1.01037e-06
1.41485e-08
1.01128e-06
1.49144e-08
1.01205e-06
1.59002e-08
1.01249e-06
1.76424e-08
1.01201e-06
1.86814e-08
1.01065e-06
1.86455e-08
1.00903e-06
1.82023e-08
1.00746e-06
1.96053e-08
1.00579e-06
2.01054e-08
1.00339e-06
2.23827e-08
1.00077e-06
2.01308e-08
9.96355e-07
2.27095e-08
9.92543e-07
1.62234e-08
9.85869e-07
2.06166e-08
9.81391e-07
1.1912e-08
9.73244e-07
1.95678e-08
9.66881e-07
1.30357e-08
9.5788e-07
2.09582e-08
9.47305e-07
1.98848e-08
9.35768e-07
2.73237e-08
9.21973e-07
2.89646e-08
8.99065e-07
4.49318e-08
8.87725e-07
4.04251e-08
8.41251e-07
7.64117e-08
8.31631e-07
6.82191e-08
7.6164e-07
1.23836e-07
1.33773e-07
7.3022e-07
1.00177e-06
2.60691e-09
1.00494e-06
6.77977e-09
1.00782e-06
9.78879e-09
1.01008e-06
1.1884e-08
1.01197e-06
1.30229e-08
1.01397e-06
1.39059e-08
1.01619e-06
1.54214e-08
1.01813e-06
1.67408e-08
1.01935e-06
1.74249e-08
1.02014e-06
1.74099e-08
1.02121e-06
1.8543e-08
1.02238e-06
1.89273e-08
1.02363e-06
2.11375e-08
1.02399e-06
1.97696e-08
1.02354e-06
2.3156e-08
1.02147e-06
1.82988e-08
1.01757e-06
2.45166e-08
1.01339e-06
1.60939e-08
1.00613e-06
2.68226e-08
1.00114e-06
1.803e-08
9.91431e-07
3.06644e-08
9.84702e-07
2.66142e-08
9.73673e-07
3.83524e-08
9.62549e-07
4.0089e-08
9.50633e-07
5.68477e-08
9.33176e-07
5.78821e-08
9.18885e-07
9.07024e-08
8.9513e-07
9.19739e-08
8.81286e-07
1.3768e-07
1.64266e-07
8.50794e-07
1.00083e-06
1.78155e-09
1.00258e-06
5.0258e-09
1.00462e-06
7.74647e-09
1.00661e-06
9.89907e-09
1.00837e-06
1.12606e-08
1.0101e-06
1.21749e-08
1.01204e-06
1.34823e-08
1.01394e-06
1.48385e-08
1.01541e-06
1.5954e-08
1.01655e-06
1.62723e-08
1.01782e-06
1.72712e-08
1.01922e-06
1.75319e-08
1.02065e-06
1.97043e-08
1.02126e-06
1.91605e-08
1.02147e-06
2.29429e-08
1.0197e-06
2.00732e-08
1.01792e-06
2.62963e-08
1.0134e-06
2.06069e-08
1.01003e-06
3.01929e-08
1.00374e-06
2.43226e-08
9.98611e-07
3.57956e-08
9.91596e-07
3.36289e-08
9.83642e-07
4.63066e-08
9.76254e-07
4.74768e-08
9.65318e-07
6.77838e-08
9.56276e-07
6.69242e-08
9.44846e-07
1.02133e-07
9.33547e-07
1.03273e-07
9.2407e-07
1.47156e-07
1.66891e-07
9.21445e-07
1.00041e-06
1.37302e-09
1.00156e-06
3.87633e-09
1.00315e-06
6.15338e-09
1.0049e-06
8.15038e-09
1.00657e-06
9.59245e-09
1.00814e-06
1.0598e-08
1.00985e-06
1.17732e-08
1.0116e-06
1.30944e-08
1.01319e-06
1.43628e-08
1.01442e-06
1.50436e-08
1.01571e-06
1.59754e-08
1.01678e-06
1.64679e-08
1.01811e-06
1.83748e-08
1.01855e-06
1.87196e-08
1.01925e-06
2.22433e-08
1.01805e-06
2.12751e-08
1.01746e-06
2.68864e-08
1.01398e-06
2.40809e-08
1.01226e-06
3.19174e-08
1.00665e-06
2.99256e-08
1.00436e-06
3.80866e-08
9.96701e-07
4.12918e-08
9.94246e-07
4.87614e-08
9.84809e-07
5.69136e-08
9.81653e-07
7.09394e-08
9.72622e-07
7.59555e-08
9.67454e-07
1.07301e-07
9.62405e-07
1.08322e-07
9.58947e-07
1.50614e-07
1.65776e-07
9.60062e-07
1.00032e-06
1.05105e-09
1.00116e-06
3.03686e-09
1.00239e-06
4.9279e-09
1.00385e-06
6.68628e-09
1.00537e-06
8.07513e-09
1.00685e-06
9.11536e-09
1.00842e-06
1.02047e-08
1.01004e-06
1.14788e-08
1.01161e-06
1.27854e-08
1.01292e-06
1.3733e-08
1.01425e-06
1.46525e-08
1.01529e-06
1.54204e-08
1.01658e-06
1.70878e-08
1.0171e-06
1.81958e-08
1.01803e-06
2.13149e-08
1.01731e-06
2.19945e-08
1.01748e-06
2.67197e-08
1.01509e-06
2.64701e-08
1.01421e-06
3.27958e-08
1.01079e-06
3.33506e-08
1.00835e-06
4.05188e-08
1.00498e-06
4.46667e-08
1.00092e-06
5.28185e-08
9.97348e-07
6.04887e-08
9.94064e-07
7.42236e-08
9.88599e-07
8.14201e-08
9.89352e-07
1.06547e-07
9.84594e-07
1.13081e-07
9.88284e-07
1.46924e-07
1.61807e-07
9.92252e-07
1.00022e-06
8.2747e-10
1.00087e-06
2.38692e-09
1.00187e-06
3.93107e-09
1.00313e-06
5.42614e-09
1.00453e-06
6.67774e-09
1.00597e-06
7.67793e-09
1.00749e-06
8.67845e-09
1.00906e-06
9.90989e-09
1.01066e-06
1.11895e-08
1.01205e-06
1.2335e-08
1.01347e-06
1.32404e-08
1.0146e-06
1.42846e-08
1.01597e-06
1.57194e-08
1.01673e-06
1.74356e-08
1.01793e-06
2.01167e-08
1.01779e-06
2.21322e-08
1.01861e-06
2.58964e-08
1.01707e-06
2.80136e-08
1.01754e-06
3.23304e-08
1.01463e-06
3.6258e-08
1.01473e-06
4.04193e-08
1.01124e-06
4.81538e-08
1.01078e-06
5.32849e-08
1.00786e-06
6.34e-08
1.00706e-06
7.50323e-08
1.00585e-06
8.26273e-08
1.00659e-06
1.05806e-07
1.00775e-06
1.11922e-07
1.01394e-06
1.40734e-07
1.55604e-07
1.02014e-06
1.00019e-06
6.40163e-10
1.00074e-06
1.83517e-09
1.00163e-06
3.0364e-09
1.00279e-06
4.2747e-09
1.00411e-06
5.35755e-09
1.00552e-06
6.26421e-09
1.00704e-06
7.15789e-09
1.00862e-06
8.3309e-09
1.01025e-06
9.55461e-09
1.01176e-06
1.08296e-08
1.01327e-06
1.17274e-08
1.01456e-06
1.29959e-08
1.01604e-06
1.42377e-08
1.0171e-06
1.63785e-08
1.01853e-06
1.86864e-08
1.01904e-06
2.16242e-08
1.02021e-06
2.47265e-08
1.01991e-06
2.83156e-08
1.02057e-06
3.16653e-08
1.01979e-06
3.70375e-08
1.01971e-06
4.04966e-08
1.01917e-06
4.86981e-08
1.0188e-06
5.36496e-08
1.01844e-06
6.37673e-08
1.01996e-06
7.35099e-08
1.01946e-06
8.31299e-08
1.02461e-06
1.00653e-07
1.02677e-06
1.0976e-07
1.03491e-06
1.32599e-07
1.46757e-07
1.04375e-06
1.00017e-06
4.67628e-10
1.00068e-06
1.32499e-09
1.00152e-06
2.20336e-09
1.00262e-06
3.17416e-09
1.00391e-06
4.06605e-09
1.00533e-06
4.84256e-09
1.00688e-06
5.60927e-09
1.00851e-06
6.70318e-09
1.01021e-06
7.85519e-09
1.01184e-06
9.19914e-09
1.01348e-06
1.00867e-08
1.01497e-06
1.1503e-08
1.01662e-06
1.25882e-08
1.01801e-06
1.49883e-08
1.01972e-06
1.69733e-08
1.02078e-06
2.05662e-08
1.02245e-06
2.3056e-08
1.02292e-06
2.78478e-08
1.02442e-06
3.01645e-08
1.02451e-06
3.69418e-08
1.02569e-06
3.93187e-08
1.02621e-06
4.8185e-08
1.02721e-06
5.26408e-08
1.02882e-06
6.21613e-08
1.03093e-06
7.13963e-08
1.03379e-06
8.02782e-08
1.03909e-06
9.53449e-08
1.04396e-06
1.04899e-07
1.05396e-06
1.22596e-07
1.3682e-07
1.0639e-06
1.00017e-06
2.97701e-10
1.00067e-06
8.25409e-10
1.00149e-06
1.37828e-09
1.0026e-06
2.07244e-09
1.0039e-06
2.75763e-09
1.00537e-06
3.37898e-09
1.00698e-06
4.00188e-09
1.00869e-06
4.98913e-09
1.01049e-06
6.05201e-09
1.01228e-06
7.41096e-09
1.01408e-06
8.29069e-09
1.0158e-06
9.78292e-09
1.01763e-06
1.07552e-08
1.01937e-06
1.32518e-08
1.02133e-06
1.50122e-08
1.02297e-06
1.89231e-08
1.02496e-06
2.10707e-08
1.02636e-06
2.64474e-08
1.0282e-06
2.8317e-08
1.02959e-06
3.55585e-08
1.03128e-06
3.76252e-08
1.03314e-06
4.63239e-08
1.03533e-06
5.04521e-08
1.03782e-06
5.96742e-08
1.04197e-06
6.7246e-08
1.04553e-06
7.67171e-08
1.05263e-06
8.82412e-08
1.05905e-06
9.84858e-08
1.06937e-06
1.12271e-07
1.25401e-07
1.08079e-06
1.00018e-06
1.20638e-10
1.0007e-06
3.0515e-10
1.00155e-06
5.21417e-10
1.0027e-06
9.21857e-10
1.00408e-06
1.38437e-09
1.00562e-06
1.83608e-09
1.00732e-06
2.30538e-09
1.00915e-06
3.15835e-09
1.01108e-06
4.11716e-09
1.01304e-06
5.44952e-09
1.01501e-06
6.32582e-09
1.01696e-06
7.83066e-09
1.019e-06
8.71583e-09
1.02107e-06
1.11852e-08
1.0233e-06
1.27768e-08
1.02543e-06
1.67932e-08
1.02779e-06
1.87132e-08
1.02987e-06
2.43659e-08
1.03222e-06
2.5969e-08
1.03446e-06
3.3315e-08
1.03683e-06
3.52561e-08
1.03974e-06
4.34191e-08
1.04269e-06
4.74967e-08
1.04658e-06
5.57897e-08
1.05128e-06
6.254e-08
1.05658e-06
7.14231e-08
1.06409e-06
8.07305e-08
1.07187e-06
9.07021e-08
1.08283e-06
1.01309e-07
1.13225e-07
1.09501e-06
1.00019e-06
-7.37585e-11
1.00076e-06
-2.62325e-10
1.00169e-06
-4.0199e-10
1.00292e-06
-3.12796e-10
1.0044e-06
-9.24073e-11
1.00605e-06
1.81073e-10
1.00786e-06
4.92931e-10
1.00983e-06
1.18856e-09
1.01193e-06
2.0244e-09
1.01408e-06
3.29619e-09
1.01624e-06
4.16945e-09
1.01843e-06
5.63582e-09
1.02069e-06
6.45523e-09
1.02308e-06
8.79795e-09
1.02558e-06
1.02745e-08
1.02817e-06
1.42026e-08
1.03084e-06
1.60422e-08
1.03354e-06
2.16655e-08
1.03627e-06
2.3239e-08
1.03925e-06
3.03397e-08
1.04221e-06
3.22914e-08
1.04581e-06
3.98258e-08
1.04968e-06
4.36224e-08
1.05419e-06
5.1278e-08
1.0599e-06
5.68354e-08
1.06598e-06
6.53439e-08
1.07412e-06
7.25864e-08
1.08291e-06
8.19138e-08
1.09401e-06
9.02118e-08
1.00648e-07
1.10658e-06
1.00023e-06
-3.00138e-10
1.00088e-06
-9.196e-10
1.00194e-06
-1.45655e-09
1.00333e-06
-1.70689e-09
1.00496e-06
-1.72001e-09
1.00675e-06
-1.61046e-09
1.00871e-06
-1.46337e-09
1.01085e-06
-9.5048e-10
1.01311e-06
-2.35895e-10
1.01546e-06
9.45119e-10
1.01781e-06
1.81885e-09
1.02024e-06
3.20436e-09
1.02272e-06
3.97539e-09
1.02539e-06
6.12476e-09
1.02814e-06
7.53131e-09
1.03109e-06
1.12482e-08
1.03403e-06
1.31003e-08
1.0372e-06
1.84977e-08
1.04026e-06
2.01762e-08
1.0438e-06
2.68074e-08
1.04722e-06
2.88675e-08
1.05144e-06
3.56027e-08
1.05586e-06
3.92062e-08
1.06114e-06
4.59934e-08
1.06728e-06
5.06938e-08
1.07422e-06
5.8412e-08
1.08267e-06
6.41283e-08
1.09212e-06
7.24737e-08
1.10334e-06
7.89839e-08
8.77758e-08
1.11622e-06
1.00026e-06
-5.62798e-10
1.00103e-06
-1.68298e-09
1.00223e-06
-2.66195e-09
1.00381e-06
-3.28667e-09
1.00563e-06
-3.53544e-09
1.00758e-06
-3.56355e-09
1.00969e-06
-3.5763e-09
1.01203e-06
-3.28706e-09
1.01452e-06
-2.73058e-09
1.01709e-06
-1.61945e-09
1.01966e-06
-7.57316e-10
1.02237e-06
4.98831e-10
1.02513e-06
1.21838e-09
1.02811e-06
3.14001e-09
1.03115e-06
4.49669e-09
1.03443e-06
7.96953e-09
1.0376e-06
9.92105e-09
1.04109e-06
1.50168e-08
1.04439e-06
1.6876e-08
1.04825e-06
2.29412e-08
1.05203e-06
2.50853e-08
1.05661e-06
3.10274e-08
1.06149e-06
3.43207e-08
1.06721e-06
4.02764e-08
1.07377e-06
4.41405e-08
1.08121e-06
5.09643e-08
1.08991e-06
5.54301e-08
1.09977e-06
6.26183e-08
1.11106e-06
6.76869e-08
7.50038e-08
1.12384e-06
1.00038e-06
-9.46183e-10
1.00139e-06
-2.68591e-09
1.00288e-06
-4.15648e-09
1.00475e-06
-5.15498e-09
1.0068e-06
-5.58467e-09
1.00894e-06
-5.70132e-09
1.01126e-06
-5.89878e-09
1.01383e-06
-5.86342e-09
1.01653e-06
-5.42445e-09
1.01928e-06
-4.37034e-09
1.02206e-06
-3.53597e-09
1.02502e-06
-2.45802e-09
1.02805e-06
-1.81417e-09
1.03126e-06
-6.85262e-11
1.03445e-06
1.30236e-09
1.03787e-06
4.548e-09
1.04112e-06
6.67803e-09
1.04472e-06
1.14119e-08
1.04813e-06
1.34614e-08
1.0522e-06
1.88789e-08
1.05623e-06
2.1057e-08
1.06108e-06
2.61718e-08
1.06629e-06
2.91163e-08
1.07238e-06
3.41848e-08
1.07919e-06
3.7329e-08
1.08703e-06
4.31188e-08
1.09589e-06
4.65786e-08
1.10598e-06
5.25191e-08
1.11722e-06
5.64477e-08
6.22475e-08
1.12998e-06
1.00048e-06
-1.42266e-09
1.00181e-06
-4.02383e-09
1.00372e-06
-6.06261e-09
1.00595e-06
-7.38093e-09
1.00824e-06
-7.87941e-09
1.01058e-06
-8.04112e-09
1.01316e-06
-8.4807e-09
1.01602e-06
-8.72267e-09
1.01892e-06
-8.32481e-09
1.02184e-06
-7.28393e-09
1.02483e-06
-6.53327e-09
1.02811e-06
-5.73793e-09
1.0315e-06
-5.20139e-09
1.03513e-06
-3.70247e-09
1.03865e-06
-2.20887e-09
1.04229e-06
9.03003e-10
1.04562e-06
3.35227e-09
1.04917e-06
7.85402e-09
1.0525e-06
1.01394e-08
1.05644e-06
1.49323e-08
1.06046e-06
1.70418e-08
1.0653e-06
2.13255e-08
1.07061e-06
2.38117e-08
1.07684e-06
2.79552e-08
1.08378e-06
3.03842e-08
1.09182e-06
3.50786e-08
1.10075e-06
3.76509e-08
1.11092e-06
4.23498e-08
1.12212e-06
4.52506e-08
4.97306e-08
1.13463e-06
1.0009e-06
-2.3221e-09
1.00286e-06
-5.98861e-09
1.00526e-06
-8.46197e-09
1.00779e-06
-9.904e-09
1.01027e-06
-1.03578e-08
1.01286e-06
-1.06396e-08
1.01581e-06
-1.14314e-08
1.01896e-06
-1.18729e-08
1.02196e-06
-1.13225e-08
1.02496e-06
-1.02837e-08
1.02828e-06
-9.85285e-09
1.0321e-06
-9.56032e-09
1.03605e-06
-9.14812e-09
1.04002e-06
-7.6705e-09
1.04356e-06
-5.75472e-09
1.04689e-06
-2.42751e-09
1.04968e-06
5.65271e-10
1.05276e-06
4.77136e-09
1.05572e-06
7.1808e-09
1.05946e-06
1.11938e-08
1.06345e-06
1.3057e-08
1.06834e-06
1.64345e-08
1.07377e-06
1.83766e-08
1.08018e-06
2.15454e-08
1.08726e-06
2.33037e-08
1.09547e-06
2.68753e-08
1.10445e-06
2.86662e-08
1.11466e-06
3.21458e-08
1.12573e-06
3.41807e-08
3.73341e-08
1.13812e-06
1.00186e-06
-4.18589e-09
1.00527e-06
-9.39909e-09
1.00855e-06
-1.17393e-08
1.01141e-06
-1.2758e-08
1.01409e-06
-1.30393e-08
1.01704e-06
-1.35918e-08
1.02038e-06
-1.47722e-08
1.0237e-06
-1.51975e-08
1.02661e-06
-1.42269e-08
1.02946e-06
-1.31388e-08
1.03276e-06
-1.31464e-08
1.03663e-06
-1.34342e-08
1.04067e-06
-1.31879e-08
1.04477e-06
-1.1768e-08
1.0484e-06
-9.38153e-09
1.05167e-06
-5.70472e-09
1.05424e-06
-2.0036e-09
1.05686e-06
2.15489e-09
1.05928e-06
4.76134e-09
1.06251e-06
7.96146e-09
1.06608e-06
9.48524e-09
1.07073e-06
1.17896e-08
1.07599e-06
1.31087e-08
1.08243e-06
1.51134e-08
1.08949e-06
1.62408e-08
1.09779e-06
1.85713e-08
1.10682e-06
1.9641e-08
1.11707e-06
2.18966e-08
1.12809e-06
2.31584e-08
2.52247e-08
1.1402e-06
1.00304e-06
-7.23053e-09
1.00688e-06
-1.32309e-08
1.00976e-06
-1.46225e-08
1.01182e-06
-1.48185e-08
1.01362e-06
-1.48341e-08
1.01549e-06
-1.5462e-08
1.01724e-06
-1.65224e-08
1.0184e-06
-1.63641e-08
1.01905e-06
-1.48764e-08
1.01986e-06
-1.39467e-08
1.02112e-06
-1.44051e-08
1.02264e-06
-1.49601e-08
1.02415e-06
-1.46909e-08
1.02566e-06
-1.32816e-08
1.02711e-06
-1.08354e-08
1.02878e-06
-7.37398e-09
1.03062e-06
-3.84454e-09
1.03335e-06
-5.74343e-10
1.03653e-06
1.58677e-09
1.04088e-06
3.6062e-09
1.04566e-06
4.71381e-09
1.0515e-06
5.94668e-09
1.05788e-06
6.731e-09
1.06535e-06
7.64158e-09
1.07329e-06
8.29911e-09
1.0825e-06
9.35846e-09
1.09226e-06
9.88502e-09
1.10322e-06
1.09388e-08
1.11494e-06
1.14375e-08
1.22208e-08
1.12794e-06
9.92769e-07
9.79539e-07
9.64916e-07
9.50098e-07
9.35263e-07
9.19801e-07
9.03279e-07
8.86915e-07
8.72038e-07
8.58092e-07
8.43687e-07
8.28727e-07
8.14036e-07
8.00754e-07
7.89919e-07
7.82545e-07
7.787e-07
7.78126e-07
7.79713e-07
7.83319e-07
7.88033e-07
7.93979e-07
8.0071e-07
8.08352e-07
8.16651e-07
8.2601e-07
8.35895e-07
8.46833e-07
8.58271e-07
8.70492e-07
4.22521e-07
-6.88868e-08
5.3267e-07
-1.10149e-07
6.4051e-07
-1.0784e-07
6.17366e-07
2.31434e-08
6.1762e-07
-2.53715e-10
7.32459e-07
-1.14839e-07
8.09954e-07
-7.7495e-08
7.82037e-07
2.79164e-08
7.64062e-07
1.79751e-08
-1.71771e-07
9.35833e-07
8.02165e-07
-1.40832e-07
8.09127e-07
-1.17111e-07
8.27043e-07
-1.25756e-07
8.89904e-07
-3.97179e-08
8.93971e-07
-4.32083e-09
9.02186e-07
-1.23053e-07
9.84515e-07
-1.59823e-07
1.03262e-06
-2.01896e-08
1.00886e-06
4.17377e-08
-2.07454e-07
1.04454e-06
8.68498e-07
-1.58536e-07
8.80755e-07
-1.29368e-07
8.58981e-07
-1.03982e-07
9.24447e-07
-1.05184e-07
9.70896e-07
-5.07703e-08
9.52601e-07
-1.04758e-07
9.35665e-07
-1.42887e-07
1.02114e-06
-1.05665e-07
1.09363e-06
-3.07531e-08
-2.63228e-07
1.14941e-06
9.20101e-07
-1.57192e-07
9.31315e-07
-1.40582e-07
9.37855e-07
-1.10522e-07
9.49549e-07
-1.16878e-07
9.79415e-07
-8.06372e-08
9.98058e-07
-1.234e-07
9.88247e-07
-1.33077e-07
1.01636e-06
-1.3378e-07
1.08636e-06
-1.00754e-07
-2.71883e-07
1.09502e-06
9.58364e-07
-1.55494e-07
9.60319e-07
-1.42537e-07
9.64685e-07
-1.14888e-07
9.80178e-07
-1.32371e-07
9.95264e-07
-9.57225e-08
1.00706e-06
-1.35197e-07
1.00682e-06
-1.32832e-07
1.03655e-06
-1.63518e-07
1.07804e-06
-1.42244e-07
-2.62676e-07
1.06884e-06
9.89533e-07
-1.52774e-07
9.90867e-07
-1.4387e-07
9.99106e-07
-1.23127e-07
1.00194e-06
-1.35207e-07
1.01608e-06
-1.09858e-07
1.02411e-06
-1.43228e-07
1.03061e-06
-1.39329e-07
1.03456e-06
-1.67467e-07
1.06253e-06
-1.70215e-07
-2.65589e-07
1.06544e-06
1.01639e-06
-1.49027e-07
1.01568e-06
-1.43159e-07
1.01746e-06
-1.249e-07
1.01952e-06
-1.37268e-07
1.02754e-06
-1.17878e-07
1.02973e-06
-1.45427e-07
1.03673e-06
-1.46329e-07
1.04449e-06
-1.75222e-07
1.0579e-06
-1.83628e-07
-2.54571e-07
1.04689e-06
1.0392e-06
-1.44475e-07
1.03527e-06
-1.39223e-07
1.03689e-06
-1.26528e-07
1.03546e-06
-1.35832e-07
1.04198e-06
-1.24404e-07
1.0413e-06
-1.44747e-07
1.04226e-06
-1.47287e-07
1.04214e-06
-1.75101e-07
1.04803e-06
-1.89513e-07
-2.43355e-07
1.03681e-06
1.0574e-06
-1.37982e-07
1.05287e-06
-1.34693e-07
1.05094e-06
-1.24599e-07
1.04711e-06
-1.32003e-07
1.0474e-06
-1.24694e-07
1.04493e-06
-1.42272e-07
1.04534e-06
-1.47698e-07
1.04202e-06
-1.71779e-07
1.03849e-06
-1.85986e-07
-2.3056e-07
1.0257e-06
1.07345e-06
-1.3064e-07
1.0663e-06
-1.27545e-07
1.06228e-06
-1.20583e-07
1.05692e-06
-1.26643e-07
1.05572e-06
-1.23492e-07
1.05021e-06
-1.36764e-07
1.04538e-06
-1.42866e-07
1.03884e-06
-1.65234e-07
1.03257e-06
-1.79718e-07
-2.14933e-07
1.01694e-06
1.08576e-06
-1.21395e-07
1.07785e-06
-1.19631e-07
1.07153e-06
-1.14267e-07
1.06421e-06
-1.19316e-07
1.05863e-06
-1.17913e-07
1.05157e-06
-1.29703e-07
1.04509e-06
-1.36393e-07
1.03538e-06
-1.55522e-07
1.02444e-06
-1.68779e-07
-1.98542e-07
1.00805e-06
1.0965e-06
-1.11316e-07
1.08673e-06
-1.0986e-07
1.07857e-06
-1.06104e-07
1.06965e-06
-1.10399e-07
1.06241e-06
-1.10669e-07
1.05302e-06
-1.20318e-07
1.04359e-06
-1.26956e-07
1.03181e-06
-1.43744e-07
1.01895e-06
-1.55921e-07
-1.80185e-07
1.00059e-06
1.10472e-06
-9.98212e-08
1.09394e-06
-9.90806e-08
1.08415e-06
-9.63109e-08
1.0737e-06
-9.99516e-08
1.06394e-06
-1.00905e-07
1.05301e-06
-1.09393e-07
1.04173e-06
-1.15677e-07
1.02796e-06
-1.2997e-07
1.01279e-06
-1.40755e-07
-1.61062e-07
9.93671e-07
1.11154e-06
-8.7527e-08
1.09947e-06
-8.70083e-08
1.08829e-06
-8.51329e-08
1.07651e-06
-8.81718e-08
1.06528e-06
-8.96744e-08
1.05271e-06
-9.68261e-08
1.03968e-06
-1.02645e-07
1.02446e-06
-1.14746e-07
1.00796e-06
-1.24255e-07
-1.40855e-07
9.8775e-07
1.11669e-06
-7.42348e-08
1.10371e-06
-7.40313e-08
1.09136e-06
-7.27793e-08
1.07847e-06
-7.5281e-08
1.06573e-06
-7.69387e-08
1.05194e-06
-8.30327e-08
1.03753e-06
-8.82391e-08
1.02112e-06
-9.83332e-08
1.00334e-06
-1.06479e-07
-1.2005e-07
9.82537e-07
1.12065e-06
-6.02488e-08
1.10679e-06
-6.01686e-08
1.09345e-06
-5.94479e-08
1.07962e-06
-6.14476e-08
1.06585e-06
-6.31661e-08
1.05097e-06
-6.81592e-08
1.03551e-06
-7.27791e-08
1.01815e-06
-8.09708e-08
9.99532e-07
-8.7858e-08
-9.86191e-08
9.78101e-07
1.12347e-06
-4.55936e-08
1.10891e-06
-4.5609e-08
1.09479e-06
-4.5331e-08
1.08018e-06
-4.68332e-08
1.06553e-06
-4.85169e-08
1.0498e-06
-5.24296e-08
1.03345e-06
-5.64315e-08
1.01527e-06
-6.27969e-08
9.95866e-07
-6.84486e-08
-7.66327e-08
9.73879e-07
1.12482e-06
-3.02168e-08
1.10941e-06
-3.01958e-08
1.09443e-06
-3.03478e-08
1.07895e-06
-3.13613e-08
1.06343e-06
-3.29893e-08
1.04671e-06
-3.57125e-08
1.02931e-06
-3.90316e-08
1.00999e-06
-4.34793e-08
9.89454e-07
-4.79102e-08
-5.34737e-08
9.66295e-07
1.11015e-06
-1.2424e-08
1.09265e-06
-1.26962e-08
1.07553e-06
-1.32289e-08
1.05813e-06
-1.39645e-08
1.04039e-06
-1.52459e-08
1.02152e-06
-1.68448e-08
1.00154e-06
-1.9046e-08
9.79568e-07
-2.15116e-08
9.55954e-07
-2.42964e-08
-2.70735e-08
9.29554e-07
8.58068e-07
8.45372e-07
8.32143e-07
8.18178e-07
8.02932e-07
7.86087e-07
7.67042e-07
7.4553e-07
7.21234e-07
6.9416e-07
-2.12069e-08
2.12069e-08
-1.23425e-07
1.02218e-07
-2.7625e-07
1.52825e-07
-4.8639e-07
2.1014e-07
-6.92053e-07
2.05663e-07
-8.26101e-07
1.34049e-07
-8.39993e-07
1.38918e-08
-7.4465e-07
-9.5343e-08
-5.86331e-07
-1.58319e-07
-4.0259e-07
-1.83741e-07
-2.17534e-07
-1.85057e-07
-4.87103e-08
-1.68823e-07
9.67459e-08
-1.45456e-07
2.13364e-07
-1.16618e-07
3.00541e-07
-8.71769e-08
3.61416e-07
-6.08755e-08
4.01292e-07
-3.98759e-08
4.25548e-07
-2.42557e-08
4.38813e-07
-1.32652e-08
4.44761e-07
-5.94829e-09
4.46143e-07
-1.3813e-09
4.44918e-07
1.22514e-09
4.42403e-07
2.51445e-09
4.39429e-07
2.97382e-09
4.36474e-07
2.95506e-09
4.33759e-07
2.71526e-09
4.31392e-07
2.36688e-09
4.29368e-07
2.02416e-09
4.27679e-07
1.68865e-09
4.26263e-07
1.41625e-09
4.25098e-07
1.16557e-09
4.24129e-07
9.68938e-10
4.23339e-07
7.89591e-10
4.22694e-07
6.44912e-10
4.22176e-07
5.17961e-10
4.21778e-07
3.97825e-10
4.21463e-07
3.15455e-10
4.21265e-07
1.98053e-10
4.21108e-07
1.56338e-10
2.57905e-11
-2.42294e-08
4.54363e-08
-1.7182e-07
2.49809e-07
-3.75845e-07
3.5685e-07
-5.92466e-07
4.26761e-07
-7.85776e-07
3.98973e-07
-8.74547e-07
2.2282e-07
-8.42031e-07
-1.86242e-08
-7.18524e-07
-2.1885e-07
-5.41632e-07
-3.35211e-07
-3.49511e-07
-3.75862e-07
-1.58809e-07
-3.75759e-07
1.11325e-08
-3.38765e-07
1.63969e-07
-2.98293e-07
2.90927e-07
-2.43576e-07
3.91897e-07
-1.88147e-07
4.69264e-07
-1.38243e-07
5.27398e-07
-9.801e-08
5.70792e-07
-6.765e-08
6.03101e-07
-4.55745e-08
6.27032e-07
-2.98784e-08
6.44577e-07
-1.89267e-08
6.57257e-07
-1.14545e-08
6.66306e-07
-6.53476e-09
6.72698e-07
-3.41811e-09
6.77205e-07
-1.55199e-09
6.8037e-07
-4.50136e-10
6.82641e-07
9.60434e-11
6.84277e-07
3.88005e-10
6.8551e-07
4.55328e-10
6.86431e-07
4.96028e-10
6.87161e-07
4.34952e-10
6.87731e-07
3.99188e-10
6.8821e-07
3.10171e-10
6.88603e-07
2.52743e-10
6.88953e-07
1.67612e-10
6.89263e-07
8.77804e-11
6.89553e-07
2.55674e-11
6.89839e-07
-8.78544e-11
6.90118e-07
-1.23074e-10
-2.68119e-10
-9.78741e-08
1.4331e-07
-2.70648e-07
4.22583e-07
-4.25444e-07
5.11646e-07
-5.73498e-07
5.74815e-07
-7.01005e-07
5.26479e-07
-7.26348e-07
2.48164e-07
-6.60453e-07
-8.45192e-08
-5.17296e-07
-3.62007e-07
-3.40865e-07
-5.11642e-07
-1.63985e-07
-5.52742e-07
-7.80838e-09
-5.31935e-07
1.30709e-07
-4.77283e-07
2.48534e-07
-4.16118e-07
3.48222e-07
-3.43263e-07
4.29113e-07
-2.69037e-07
4.93464e-07
-2.02594e-07
5.44334e-07
-1.4888e-07
5.84531e-07
-1.07847e-07
6.16428e-07
-7.74718e-08
6.41854e-07
-5.53043e-08
6.62113e-07
-3.9186e-08
6.78147e-07
-2.74884e-08
6.90724e-07
-1.91116e-08
7.00471e-07
-1.31654e-08
7.08003e-07
-9.0842e-09
7.13791e-07
-6.23787e-09
7.18288e-07
-4.4013e-09
7.21763e-07
-3.08634e-09
7.24511e-07
-2.29277e-09
7.26676e-07
-1.66937e-09
7.28433e-07
-1.32156e-09
7.29843e-07
-1.01067e-09
7.31022e-07
-8.69263e-10
7.31984e-07
-7.08709e-10
7.32815e-07
-6.63923e-10
7.3351e-07
-6.06882e-10
7.34136e-07
-6.00559e-10
7.34675e-07
-6.27114e-10
7.35187e-07
-6.34689e-10
-7.38532e-10
-1.27723e-07
2.71034e-07
-2.03665e-07
4.98525e-07
-2.78012e-07
5.85992e-07
-3.93316e-07
6.90119e-07
-4.3687e-07
5.70033e-07
-4.12866e-07
2.2416e-07
-3.28342e-07
-1.69044e-07
-1.89477e-07
-5.00872e-07
-2.81467e-08
-6.72972e-07
1.15449e-07
-6.96338e-07
2.43973e-07
-6.60459e-07
3.45207e-07
-5.78518e-07
4.20792e-07
-4.91703e-07
4.7826e-07
-4.00732e-07
5.2026e-07
-3.11037e-07
5.53008e-07
-2.35342e-07
5.82259e-07
-1.78132e-07
6.09397e-07
-1.34984e-07
6.33558e-07
-1.01633e-07
6.54047e-07
-7.57935e-08
6.70912e-07
-5.60509e-08
6.84597e-07
-4.11729e-08
6.95632e-07
-3.01463e-08
7.04476e-07
-2.20094e-08
7.11563e-07
-1.6172e-08
7.17209e-07
-1.1884e-08
7.21738e-07
-8.93025e-09
7.25347e-07
-6.69481e-09
7.2827e-07
-5.21536e-09
7.30622e-07
-4.02148e-09
7.32559e-07
-3.25885e-09
7.34133e-07
-2.58471e-09
7.35461e-07
-2.19708e-09
7.36548e-07
-1.79603e-09
7.37491e-07
-1.60686e-09
7.38275e-07
-1.39119e-09
7.3898e-07
-1.30541e-09
7.39582e-07
-1.2287e-09
7.40149e-07
-1.20152e-09
-1.24833e-09
-1.49855e-07
4.20889e-07
-2.00386e-07
5.49056e-07
-1.84093e-07
5.69699e-07
-1.33995e-07
6.4002e-07
-8.19951e-08
5.18034e-07
-3.53159e-08
1.77481e-07
3.01316e-08
-2.34491e-07
1.13235e-07
-5.83975e-07
2.22435e-07
-7.82173e-07
3.29368e-07
-8.03271e-07
4.23886e-07
-7.54977e-07
5.07231e-07
-6.61862e-07
5.68238e-07
-5.5271e-07
6.11288e-07
-4.43781e-07
6.33515e-07
-3.33264e-07
6.37564e-07
-2.39391e-07
6.36935e-07
-1.77503e-07
6.41704e-07
-1.39753e-07
6.52723e-07
-1.12652e-07
6.66475e-07
-8.95456e-08
6.79811e-07
-6.9387e-08
6.91265e-07
-5.26267e-08
7.00606e-07
-3.94871e-08
7.08102e-07
-2.95058e-08
7.14156e-07
-2.22256e-08
7.19057e-07
-1.67858e-08
7.23077e-07
-1.29497e-08
7.26354e-07
-9.97209e-09
7.29064e-07
-7.92566e-09
7.31282e-07
-6.23926e-09
7.33134e-07
-5.11082e-09
7.34653e-07
-4.10364e-09
7.35944e-07
-3.48831e-09
7.37007e-07
-2.85828e-09
7.37932e-07
-2.53176e-09
7.38702e-07
-2.16144e-09
7.39395e-07
-1.99873e-09
7.39986e-07
-1.82008e-09
7.40544e-07
-1.75913e-09
-1.74827e-09
1.81199e-07
2.3969e-07
1.9714e-07
5.33115e-07
3.00911e-07
4.65928e-07
3.41865e-07
5.99066e-07
3.6565e-07
4.94249e-07
3.62605e-07
1.80526e-07
3.45706e-07
-2.17592e-07
3.45245e-07
-5.83515e-07
3.96828e-07
-8.33756e-07
4.61228e-07
-8.6767e-07
5.09808e-07
-8.03557e-07
5.5638e-07
-7.08434e-07
5.9256e-07
-5.8889e-07
6.28525e-07
-4.79746e-07
6.68508e-07
-3.73247e-07
6.93403e-07
-2.64286e-07
6.95271e-07
-1.79371e-07
6.86807e-07
-1.31289e-07
6.81493e-07
-1.07338e-07
6.83268e-07
-9.13204e-08
6.89814e-07
-7.59328e-08
6.97864e-07
-6.06767e-08
7.05428e-07
-4.70515e-08
7.11804e-07
-3.58816e-08
7.17006e-07
-2.74281e-08
7.21225e-07
-2.10044e-08
7.24703e-07
-1.64273e-08
7.27569e-07
-1.28381e-08
7.29973e-07
-1.03299e-08
7.31967e-07
-8.23368e-09
7.33655e-07
-6.79852e-09
7.35053e-07
-5.50202e-09
7.36253e-07
-4.68759e-09
7.37245e-07
-3.85102e-09
7.38114e-07
-3.40046e-09
7.3884e-07
-2.88716e-09
7.39495e-07
-2.65361e-09
7.40054e-07
-2.37933e-09
7.40582e-07
-2.28722e-09
-2.22105e-09
-2.74158e-08
2.67106e-07
2.55769e-07
2.4993e-07
4.81342e-07
2.40356e-07
6.50966e-07
4.29441e-07
7.14974e-07
4.30242e-07
7.16381e-07
1.79118e-07
6.83924e-07
-1.85134e-07
6.44707e-07
-5.44298e-07
6.26774e-07
-8.15823e-07
6.42187e-07
-8.83083e-07
6.47059e-07
-8.08429e-07
6.42391e-07
-7.03765e-07
6.24836e-07
-5.71335e-07
6.00343e-07
-4.55253e-07
6.04628e-07
-3.77532e-07
6.41034e-07
-3.00692e-07
6.79888e-07
-2.18225e-07
7.00989e-07
-1.5239e-07
7.06014e-07
-1.12363e-07
7.0506e-07
-9.03672e-08
7.05025e-07
-7.58973e-08
7.07504e-07
-6.3156e-08
7.11522e-07
-5.10694e-08
7.15871e-07
-4.023e-08
7.199e-07
-3.14573e-08
7.2338e-07
-2.44843e-08
7.26346e-07
-1.9394e-08
7.2884e-07
-1.5332e-08
7.30964e-07
-1.24533e-08
7.32744e-07
-1.00142e-08
7.34265e-07
-8.3193e-09
7.35534e-07
-6.77093e-09
7.36628e-07
-5.78203e-09
7.37538e-07
-4.76078e-09
7.38337e-07
-4.19903e-09
7.39005e-07
-3.55575e-09
7.3961e-07
-3.258e-09
7.40126e-07
-2.89577e-09
7.40614e-07
-2.77548e-09
-2.65723e-09
7.79797e-07
4.23141e-07
7.03323e-07
3.26404e-07
7.26069e-07
2.1761e-07
8.68809e-07
2.86701e-07
9.83175e-07
3.15875e-07
1.02041e-06
1.41879e-07
1.03727e-06
-2.01986e-07
1.04137e-06
-5.48398e-07
9.67416e-07
-7.41874e-07
8.86897e-07
-8.02564e-07
8.34892e-07
-7.56424e-07
7.89838e-07
-6.58712e-07
7.44265e-07
-5.25763e-07
6.80565e-07
-3.91552e-07
6.21518e-07
-3.18485e-07
6.08005e-07
-2.87179e-07
6.3961e-07
-2.4983e-07
6.86188e-07
-1.98968e-07
7.23303e-07
-1.49478e-07
7.43994e-07
-1.11058e-07
7.52374e-07
-8.42782e-08
7.55109e-07
-6.58904e-08
7.56564e-07
-5.25245e-08
7.58328e-07
-4.19945e-08
7.60539e-07
-3.3668e-08
7.62881e-07
-2.68265e-08
7.65131e-07
-2.16442e-08
7.67151e-07
-1.73513e-08
7.68941e-07
-1.42436e-08
7.70485e-07
-1.15578e-08
7.71833e-07
-9.66743e-09
7.72976e-07
-7.91457e-09
7.73976e-07
-6.7819e-09
7.74816e-07
-5.60042e-09
7.75559e-07
-4.94185e-09
7.76184e-07
-4.18097e-09
7.76751e-07
-3.82545e-09
7.77237e-07
-3.38155e-09
7.77697e-07
-3.23558e-09
-3.0676e-09
1.134e-06
3.33684e-07
1.13127e-06
3.29132e-07
1.09525e-06
2.53632e-07
1.13615e-06
2.45797e-07
1.20179e-06
2.50241e-07
1.22159e-06
1.22072e-07
1.23961e-06
-2.19999e-07
1.26489e-06
-5.73683e-07
1.19447e-06
-6.71448e-07
1.03992e-06
-6.48013e-07
9.17202e-07
-6.3371e-07
8.34066e-07
-5.75575e-07
7.73495e-07
-4.65191e-07
7.29508e-07
-3.47566e-07
6.84757e-07
-2.73734e-07
6.45877e-07
-2.48299e-07
6.32349e-07
-2.36303e-07
6.48398e-07
-2.15017e-07
6.81289e-07
-1.82369e-07
7.1513e-07
-1.44898e-07
7.40015e-07
-1.09163e-07
7.54177e-07
-8.0053e-08
7.60609e-07
-5.89564e-08
7.63179e-07
-4.45643e-08
7.64519e-07
-3.50076e-08
7.65757e-07
-2.80654e-08
7.67181e-07
-2.30675e-08
7.68683e-07
-1.88534e-08
7.70155e-07
-1.57161e-08
7.71485e-07
-1.28874e-08
7.72664e-07
-1.08467e-08
7.73666e-07
-8.91652e-09
7.74539e-07
-7.6549e-09
7.7527e-07
-6.3314e-09
7.75915e-07
-5.58677e-09
7.76457e-07
-4.72313e-09
7.76949e-07
-4.31716e-09
7.7737e-07
-3.80216e-09
7.77768e-07
-3.63399e-09
-3.42188e-09
1.19219e-06
2.90895e-07
1.21281e-06
3.0852e-07
1.22542e-06
2.41018e-07
1.25127e-06
2.1995e-07
1.30976e-06
1.91745e-07
1.37199e-06
5.98438e-08
1.37462e-06
-2.22622e-07
1.29693e-06
-4.95997e-07
1.18817e-06
-5.62687e-07
1.05362e-06
-5.13469e-07
9.30552e-07
-5.10638e-07
8.47265e-07
-4.92288e-07
7.88393e-07
-4.06319e-07
7.62521e-07
-3.21694e-07
7.69876e-07
-2.81088e-07
7.79101e-07
-2.57524e-07
7.67159e-07
-2.2436e-07
7.41751e-07
-1.89609e-07
7.23256e-07
-1.63874e-07
7.2095e-07
-1.42592e-07
7.30873e-07
-1.19086e-07
7.44317e-07
-9.34974e-08
7.55449e-07
-7.00881e-08
7.62757e-07
-5.18723e-08
7.66937e-07
-3.91873e-08
7.69191e-07
-3.03194e-08
7.70515e-07
-2.43916e-08
7.71463e-07
-1.9802e-08
7.72308e-07
-1.65608e-08
7.73108e-07
-1.36875e-08
7.73885e-07
-1.16231e-08
7.74596e-07
-9.62807e-09
7.75253e-07
-8.3118e-09
7.75823e-07
-6.9016e-09
7.76339e-07
-6.10236e-09
7.76778e-07
-5.16278e-09
7.77181e-07
-4.71961e-09
7.77527e-07
-4.14791e-09
7.77855e-07
-3.96246e-09
-3.71364e-09
1.13256e-06
2.53357e-07
1.18178e-06
2.59299e-07
1.20705e-06
2.15747e-07
1.23701e-06
1.89985e-07
1.29771e-06
1.31045e-07
1.36801e-06
-1.04526e-08
1.35519e-06
-2.09799e-07
1.22627e-06
-3.67081e-07
1.10595e-06
-4.42362e-07
1.03072e-06
-4.38241e-07
9.43112e-07
-4.23032e-07
8.64259e-07
-4.13436e-07
8.2097e-07
-3.63031e-07
7.97694e-07
-2.98418e-07
7.92536e-07
-2.75931e-07
8.1259e-07
-2.77577e-07
8.43398e-07
-2.55169e-07
8.58441e-07
-2.04653e-07