/*--------------------------------*- C++ -*----------------------------------*\
| =========                 |                                                 |
| \\      /  F ield         | OpenFOAM: The Open Source CFD Toolbox           |
|  \\    /   O peration     | Version:  2112                                  |
|   \\  /    A nd           | Website:  www.openfoam.com                      |
|    \\/     M anipulation  |                                                 |
\*---------------------------------------------------------------------------*/
FoamFile
{
    version     2.0;
    format      ascii;
    arch        "LSB;label=32;scalar=64";
    class       volScalarField;
    location    "0.05";
    object      nut;
}
// * * * * * * * * * * * * * * * * * * * * * * * * * * * * * * * * * * * * * //

dimensions      [0 2 -1 0 0 0 0];

internalField   nonuniform List<scalar> 
1880
(
5.94371e-11
7.43812e-11
1.27595e-12
8.94304e-12
2.69896e-12
1.59433e-12
4.89924e-13
1.92063e-13
1.17625e-14
2.31903e-15
4.8394e-17
1.19248e-17
1.43115e-17
6.4211e-17
1.7999e-16
4.16449e-16
8.58635e-16
1.80541e-15
3.49006e-15
8.62494e-15
1.3875e-14
5.76445e-14
5.35572e-14
6.15542e-13
3.56938e-13
1.07605e-11
2.11087e-11
3.45672e-10
1.22014e-09
1.77326e-08
2.04757e-08
5.22697e-08
1.04068e-09
6.3122e-09
3.31733e-09
2.16901e-09
3.99426e-10
1.5485e-10
1.88903e-11
3.30902e-12
2.59713e-14
3.46515e-14
3.68529e-13
1.35691e-12
3.40788e-12
7.44672e-12
1.53018e-11
3.15782e-11
6.19356e-11
1.37538e-10
2.4699e-10
6.77352e-10
9.29953e-10
3.55638e-09
3.40821e-09
1.43674e-08
1.48405e-08
3.6133e-08
5.18981e-08
8.34341e-08
1.79026e-08
4.2805e-08
8.90873e-09
7.58509e-09
1.21684e-08
1.1579e-08
6.81618e-09
6.21712e-09
6.55679e-10
8.56721e-10
9.5444e-10
1.2483e-09
1.46681e-09
1.75888e-09
2.12328e-09
2.5559e-09
3.06827e-09
3.69381e-09
4.43528e-09
5.3944e-09
6.46445e-09
8.09025e-09
9.51937e-09
1.27182e-08
1.40834e-08
2.10808e-08
2.10409e-08
3.47729e-08
4.07258e-08
5.0315e-08
2.06191e-08
4.41263e-08
1.30491e-08
1.31588e-08
1.48902e-08
1.38602e-08
4.70969e-09
5.26544e-09
1.18213e-09
1.62431e-09
1.1186e-09
1.33668e-09
1.52894e-09
1.7892e-09
2.11705e-09
2.51314e-09
2.98431e-09
3.56495e-09
4.24383e-09
5.14859e-09
6.10039e-09
7.66057e-09
8.90043e-09
1.18598e-08
1.32608e-08
1.84647e-08
1.95585e-08
2.84399e-08
3.29458e-08
4.32542e-08
2.12332e-08
4.23139e-08
4.57541e-09
1.15414e-08
1.26245e-08
1.20847e-08
6.17967e-09
6.38022e-09
6.09327e-10
1.45404e-09
8.40706e-10
1.1381e-09
1.36638e-09
1.65766e-09
2.00595e-09
2.4118e-09
2.88448e-09
3.45608e-09
4.11971e-09
4.97943e-09
5.90739e-09
7.31128e-09
8.59369e-09
1.1018e-08
1.26691e-08
1.64284e-08
1.80612e-08
2.47529e-08
3.23122e-08
3.34049e-08
2.17162e-08
4.23403e-08
4.29558e-09
1.62954e-08
1.42787e-08
1.30455e-08
4.7968e-09
5.51667e-09
4.90994e-10
1.58326e-09
6.5384e-10
9.78268e-10
1.24538e-09
1.55879e-09
1.91819e-09
2.32741e-09
2.79731e-09
3.35555e-09
4.00122e-09
4.81093e-09
5.71545e-09
6.96215e-09
8.29943e-09
1.02325e-08
1.21829e-08
1.46237e-08
1.68365e-08
2.07229e-08
2.72315e-08
2.80134e-08
2.19592e-08
4.17689e-08
4.7144e-09
1.72898e-08
1.37925e-08
1.27183e-08
1.91138e-09
3.88245e-09
4.48605e-11
1.60453e-09
5.82564e-10
9.08203e-10
1.18444e-09
1.50243e-09
1.86082e-09
2.26448e-09
2.72502e-09
3.26366e-09
3.88735e-09
4.64042e-09
5.52148e-09
6.60284e-09
7.95748e-09
9.46818e-09
1.15441e-08
1.31522e-08
1.55505e-08
1.82365e-08
2.44909e-08
2.45031e-08
2.20878e-08
4.15668e-08
5.13621e-09
1.84064e-08
1.40587e-08
1.2885e-08
6.27838e-10
2.26951e-09
5.32234e-10
1.59849e-09
6.55448e-10
9.18502e-10
1.18527e-09
1.49128e-09
1.83702e-09
2.22646e-09
2.66988e-09
3.18258e-09
3.78125e-09
4.47886e-09
5.32936e-09
6.26132e-09
7.60493e-09
8.77102e-09
1.09059e-08
1.18916e-08
1.43924e-08
1.62203e-08
2.11128e-08
2.16288e-08
2.21364e-08
4.14388e-08
5.15914e-09
1.87784e-08
1.41243e-08
1.29068e-08
1.99469e-09
2.48708e-09
7.20949e-10
1.55413e-09
7.95977e-10
9.95202e-10
1.23426e-09
1.51979e-09
1.8426e-09
2.20827e-09
2.62959e-09
3.11559e-09
3.68664e-09
4.32953e-09
5.13951e-09
5.95022e-09
7.24868e-09
8.15638e-09
1.02504e-08
1.0871e-08
1.32965e-08
1.45826e-08
1.86937e-08
1.93543e-08
2.21389e-08
4.14131e-08
4.83703e-09
1.87883e-08
1.41922e-08
1.29347e-08
3.81804e-09
3.83792e-09
9.15117e-10
1.59258e-09
9.56631e-10
1.1031e-09
1.31336e-09
1.56978e-09
1.8642e-09
2.20587e-09
2.60439e-09
3.06109e-09
3.59976e-09
4.19345e-09
4.95813e-09
5.67814e-09
6.8989e-09
7.63482e-09
9.593e-09
1.00318e-08
1.22817e-08
1.32519e-08
1.63671e-08
1.75234e-08
2.21025e-08
4.14582e-08
4.14087e-09
1.84719e-08
1.42648e-08
1.29747e-08
4.96425e-09
4.94515e-09
1.09226e-09
1.68548e-09
1.11301e-09
1.21688e-09
1.39807e-09
1.62709e-09
1.89607e-09
2.21345e-09
2.58623e-09
3.01322e-09
3.51998e-09
4.07247e-09
4.78945e-09
5.44022e-09
6.56422e-09
7.19354e-09
8.96348e-09
9.33459e-09
1.13599e-08
1.21617e-08
1.45027e-08
1.58968e-08
2.20264e-08
4.15544e-08
3.0968e-09
1.77992e-08
1.42859e-08
1.29484e-08
5.56841e-09
5.59606e-09
1.25128e-09
1.78647e-09
1.24642e-09
1.31933e-09
1.47595e-09
1.68109e-09
1.92627e-09
2.21973e-09
2.56786e-09
2.96951e-09
3.44742e-09
3.96565e-09
4.63363e-09
5.23493e-09
6.25266e-09
6.82756e-09
8.38473e-09
8.76676e-09
1.05308e-08
1.12692e-08
1.29443e-08
1.45085e-08
2.19162e-08
4.1768e-08
1.89899e-09
1.68699e-08
1.44018e-08
1.30633e-08
5.71752e-09
5.84477e-09
1.39431e-09
1.88278e-09
1.35084e-09
1.39745e-09
1.53463e-09
1.72009e-09
1.94543e-09
2.21934e-09
2.54713e-09
2.92722e-09
3.37877e-09
3.86857e-09
4.49073e-09
5.05916e-09
5.97298e-09
6.52505e-09
7.86886e-09
8.29657e-09
9.80148e-09
1.05305e-08
1.17421e-08
1.3304e-08
2.17052e-08
4.20004e-08
9.20772e-10
1.50726e-08
1.40178e-08
1.27563e-08
5.97111e-09
6.12409e-09
1.48261e-09
1.91655e-09
1.41434e-09
1.44267e-09
1.56444e-09
1.73615e-09
1.94739e-09
2.207e-09
2.51999e-09
2.88358e-09
3.31287e-09
3.78064e-09
4.36205e-09
4.9077e-09
5.72708e-09
6.27611e-09
7.42466e-09
7.90806e-09
9.18051e-09
9.91241e-09
1.08284e-08
1.22858e-08
2.14015e-08
4.26721e-08
6.24849e-10
1.41548e-08
1.47519e-08
1.3306e-08
5.54298e-09
5.84797e-09
1.6067e-09
2.02715e-09
1.44735e-09
1.44723e-09
1.56018e-09
1.72491e-09
1.92902e-09
2.18093e-09
2.4851e-09
2.8379e-09
3.24997e-09
3.70136e-09
4.24801e-09
4.77903e-09
5.51744e-09
6.07185e-09
7.05489e-09
7.58949e-09
8.66447e-09
9.3944e-09
1.01363e-08
1.1438e-08
2.07102e-08
4.26028e-08
4.77701e-09
9.93302e-09
1.29583e-08
1.21339e-08
6.10867e-09
6.22702e-09
1.55225e-09
1.85886e-09
1.38249e-09
1.39919e-09
1.512e-09
1.68136e-09
1.88887e-09
2.14165e-09
2.44282e-09
2.78973e-09
3.19014e-09
3.6308e-09
4.14976e-09
4.6716e-09
5.34314e-09
5.90725e-09
6.75557e-09
7.33223e-09
8.24888e-09
8.97163e-09
9.60933e-09
1.07486e-08
2.03113e-08
4.45203e-08
6.41384e-09
1.36844e-08
1.51393e-08
1.3896e-08
4.74654e-09
5.44679e-09
1.61891e-09
1.98883e-09
1.33009e-09
1.30291e-09
1.4291e-09
1.61172e-09
1.82941e-09
2.08969e-09
2.39398e-09
2.74016e-09
3.13412e-09
3.5685e-09
4.06641e-09
4.58302e-09
5.2024e-09
5.77739e-09
6.52088e-09
7.13327e-09
7.91908e-09
8.64142e-09
9.21045e-09
1.02087e-08
1.67979e-08
4.30047e-08
9.48123e-09
1.02963e-08
1.20928e-08
1.16088e-08
6.46325e-09
5.88831e-09
1.60683e-10
6.52406e-10
1.25591e-10
3.10268e-10
6.03743e-10
9.26972e-10
1.24865e-09
1.58776e-09
1.95284e-09
2.34699e-09
2.7773e-09
3.2427e-09
3.75598e-09
4.29629e-09
4.9045e-09
5.50692e-09
6.20256e-09
6.85351e-09
7.55202e-09
8.32667e-09
8.77689e-09
9.79632e-09
2.07237e-08
5.22005e-08
7.79153e-10
7.34613e-09
4.03113e-09
2.60737e-09
6.44829e-10
2.70001e-10
4.94839e-11
1.43187e-11
3.93558e-12
1.99417e-12
1.29541e-12
1.03932e-12
9.78102e-13
1.0094e-12
1.08005e-12
1.14305e-12
1.16517e-12
1.08219e-12
9.1058e-13
5.82212e-13
2.90518e-13
5.25161e-14
4.76428e-15
1.165e-13
1.29509e-12
6.99178e-12
1.31161e-11
4.96552e-11
5.87892e-11
7.40009e-11
1.20531e-12
9.17229e-12
2.92293e-12
1.74079e-12
5.2708e-13
2.12752e-13
1.91118e-14
5.50349e-15
8.21587e-16
3.2429e-16
1.55272e-16
1.13139e-16
1.10691e-16
1.27108e-16
1.57265e-16
1.99521e-16
2.54928e-16
3.19744e-16
3.95766e-16
4.61617e-16
5.23189e-16
5.90743e-16
5.21894e-16
6.77546e-16
3.70408e-16
5.38566e-16
1.18687e-16
1.06978e-16
2.19236e-08
2.44388e-10
1.3301e-09
1.17045e-09
7.62485e-09
6.40946e-10
6.95781e-09
2.70484e-08
7.52209e-08
1.70105e-08
1.07328e-07
7.23136e-08
5.41091e-08
4.61882e-08
4.87919e-09
9.42163e-08
1.67866e-08
8.86194e-08
3.6797e-09
9.81666e-07
1.24087e-07
5.44435e-08
7.24469e-08
5.68337e-08
4.9377e-08
1.8785e-08
8.95934e-08
3.97459e-08
5.78688e-08
2.33037e-08
6.09207e-08
4.62335e-08
6.52196e-08
6.11818e-08
1.12079e-07
5.32407e-08
5.88727e-08
6.18455e-08
4.70564e-08
9.12615e-08
7.48615e-08
3.66435e-08
5.03322e-08
3.74584e-08
5.69244e-08
4.5734e-08
4.63236e-08
6.7182e-08
6.76661e-08
3.83688e-08
4.11078e-08
3.48817e-08
4.15929e-08
4.33175e-08
4.86084e-08
4.21422e-08
4.95239e-08
5.48018e-08
5.58223e-08
6.59591e-08
4.15309e-08
2.78849e-08
3.21574e-08
3.11771e-08
3.66448e-08
3.77461e-08
3.85402e-08
4.77785e-08
4.48199e-08
3.56241e-08
2.95923e-08
2.66336e-08
3.02907e-08
3.01824e-08
3.17345e-08
3.75245e-08
3.39621e-08
3.83434e-08
3.80223e-08
4.10178e-08
2.68561e-08
2.24883e-08
2.63818e-08
2.65615e-08
2.79698e-08
2.87408e-08
2.94034e-08
3.12959e-08
3.03606e-08
2.77035e-08
2.1905e-08
2.06129e-08
2.50567e-08
2.49439e-08
2.39299e-08
2.5531e-08
2.50745e-08
2.61849e-08
2.51163e-08
2.55316e-08
1.91344e-08
1.82453e-08
2.2609e-08
2.22793e-08
2.1128e-08
2.13983e-08
2.16231e-08
2.16182e-08
2.08756e-08
1.92593e-08
1.64373e-08
1.64268e-08
2.04681e-08
2.01561e-08
1.84629e-08
1.85251e-08
1.85413e-08
1.83708e-08
1.71927e-08
1.63006e-08
1.43808e-08
1.48026e-08
1.81248e-08
1.7743e-08
1.63303e-08
1.61072e-08
1.59555e-08
1.54818e-08
1.4343e-08
1.31383e-08
1.27836e-08
1.34785e-08
1.60151e-08
1.57075e-08
1.44874e-08
1.40965e-08
1.37788e-08
1.31605e-08
1.18988e-08
1.07682e-08
1.16706e-08
1.2412e-08
1.42158e-08
1.39621e-08
1.29717e-08
1.2454e-08
1.19662e-08
1.11777e-08
9.89309e-09
8.74779e-09
1.09199e-08
1.15645e-08
1.27813e-08
1.25714e-08
1.17314e-08
1.11078e-08
1.0479e-08
9.55614e-09
8.20168e-09
7.0345e-09
1.04127e-08
1.09049e-08
1.16939e-08
1.15253e-08
1.07697e-08
1.00636e-08
9.31271e-09
8.31876e-09
6.86185e-09
5.71776e-09
9.97965e-09
1.02612e-08
1.07069e-08
1.06072e-08
9.94764e-09
9.14929e-09
8.2737e-09
6.99395e-09
5.59565e-09
3.82729e-09
7.55631e-11
1.09804e-10
1.92452e-10
2.65644e-10
2.26202e-10
2.00386e-10
1.51235e-10
1.5284e-10
8.75616e-11
7.34536e-11
3.77627e-16
4.2148e-15
9.76615e-15
1.4053e-14
1.25435e-14
1.11139e-14
1.19089e-14
1.49627e-14
1.28012e-14
1.0636e-14
1.1134e-07
5.48851e-09
1.63787e-09
1.0617e-08
9.82648e-08
8.66914e-08
1.36243e-08
1.69201e-09
2.56032e-10
4.53196e-11
9.01436e-12
1.97406e-12
4.76904e-13
1.28396e-13
3.87205e-14
1.30211e-14
4.84159e-15
1.96917e-15
8.6228e-16
4.01068e-16
1.96846e-16
1.00954e-16
5.33133e-17
2.8822e-17
1.59852e-17
9.05419e-18
5.19082e-18
3.01197e-18
1.76922e-18
1.05422e-18
6.28695e-19
3.806e-19
2.33083e-19
1.34551e-19
9.90035e-20
4.17957e-20
4.70324e-20
1.58771e-20
1.0383e-20
1.89711e-20
3.56206e-09
1.46308e-07
1.0146e-07
1.16487e-07
1.43272e-07
1.39903e-07
1.20195e-07
9.35829e-08
6.76389e-08
4.41922e-08
2.51934e-08
1.22095e-08
5.09128e-09
1.91954e-09
6.94698e-10
2.52947e-10
9.53468e-11
3.77247e-11
1.57227e-11
6.89191e-12
3.1672e-12
1.51787e-12
7.53373e-13
3.8539e-13
2.0282e-13
1.09531e-13
6.04215e-14
3.39164e-14
1.93221e-14
1.11371e-14
6.4943e-15
3.80282e-15
2.31812e-15
1.31567e-15
9.46164e-16
4.2118e-16
4.17035e-16
1.70243e-16
1.11118e-16
7.42081e-17
1.73735e-07
1.87037e-07
1.03159e-07
1.06337e-07
1.56285e-07
1.54757e-07
1.3065e-07
1.00149e-07
7.41689e-08
5.41561e-08
3.97159e-08
2.9567e-08
2.24358e-08
1.73363e-08
1.35927e-08
1.07643e-08
8.56618e-09
6.81313e-09
5.38394e-09
4.20029e-09
3.2131e-09
2.39339e-09
1.72484e-09
1.19672e-09
7.97392e-10
5.10421e-10
3.14787e-10
1.87938e-10
1.09326e-10
6.23409e-11
3.51687e-11
1.96215e-11
1.11911e-11
6.01508e-12
3.88735e-12
1.69835e-12
1.48957e-12
5.75181e-13
4.09781e-13
2.22211e-13
1.52953e-07
1.746e-07
1.51523e-07
2.77647e-09
7.00602e-08
1.26264e-07
1.32091e-07
1.06425e-07
7.77364e-08
5.5289e-08
3.96035e-08
2.90042e-08
2.17989e-08
1.67702e-08
1.31494e-08
1.04667e-08
8.43057e-09
6.85522e-09
5.61762e-09
4.63308e-09
3.84146e-09
3.19917e-09
2.6741e-09
2.24222e-09
1.88517e-09
1.5886e-09
1.34121e-09
1.13393e-09
9.59642e-10
8.12352e-10
6.87902e-10
5.81562e-10
4.92827e-10
4.12451e-10
3.54131e-10
2.8126e-10
2.55854e-10
1.82974e-10
1.69193e-10
1.03277e-10
2.01066e-07
1.04233e-07
2.87878e-06
3.42962e-09
4.0374e-08
7.17535e-08
9.51716e-08
9.87294e-08
7.8006e-08
5.49796e-08
3.84801e-08
2.78127e-08
2.08544e-08
1.60991e-08
1.26922e-08
1.01588e-08
8.22211e-09
6.71155e-09
5.51605e-09
4.55906e-09
3.78559e-09
3.1554e-09
2.63864e-09
2.21266e-09
1.8599e-09
1.56658e-09
1.32181e-09
1.11681e-09
9.44628e-10
7.99442e-10
6.77191e-10
5.73345e-10
4.86891e-10
4.1042e-10
3.52528e-10
2.88668e-10
2.58667e-10
1.94942e-10
1.81281e-10
7.93547e-11
3.08972e-06
5.46559e-06
6.28578e-06
8.45865e-08
1.78941e-07
1.60875e-07
1.02172e-07
8.41873e-08
7.06339e-08
5.16273e-08
3.60017e-08
2.58878e-08
1.95151e-08
1.52276e-08
1.21358e-08
9.80246e-09
7.99124e-09
6.55981e-09
5.4148e-09
4.49058e-09
3.73876e-09
3.12308e-09
2.61617e-09
2.19694e-09
1.84886e-09
1.5588e-09
1.31631e-09
1.11293e-09
9.41923e-10
7.97659e-10
6.76151e-10
5.7286e-10
4.86974e-10
4.10602e-10
3.53617e-10
2.89248e-10
2.60252e-10
1.97788e-10
1.83111e-10
8.9793e-11
4.91117e-07
1.36286e-07
6.92364e-06
1.56516e-06
7.29298e-08
1.05311e-06
2.72976e-10
8.06621e-08
6.80453e-08
4.85541e-08
3.44662e-08
2.48103e-08
1.8561e-08
1.44652e-08
1.15913e-08
9.43246e-09
7.74301e-09
6.39285e-09
5.30162e-09
4.41314e-09
3.68533e-09
3.08594e-09
2.59023e-09
2.17881e-09
1.83619e-09
1.54994e-09
1.31015e-09
1.10874e-09
9.39197e-10
7.96049e-10
6.7541e-10
5.7277e-10
4.87585e-10
4.11344e-10
3.55523e-10
2.90436e-10
2.62925e-10
2.01696e-10
1.86147e-10
1.03286e-10
1.91139e-07
3.84158e-06
3.75528e-06
3.91201e-07
2.24617e-07
2.00585e-06
1.84467e-06
9.62643e-07
4.2939e-07
5.86399e-08
1.22886e-08
1.56579e-08
1.46077e-08
1.29014e-08
1.10633e-08
9.32491e-09
7.79801e-09
6.50659e-09
5.43204e-09
4.54272e-09
3.80678e-09
3.19652e-09
2.68917e-09
2.26628e-09
1.91289e-09
1.61685e-09
1.36833e-09
1.1592e-09
9.8291e-10
8.33905e-10
7.08256e-10
6.01263e-10
5.12624e-10
4.3274e-10
3.7542e-10
3.06321e-10
2.79113e-10
2.16108e-10
1.98926e-10
1.22635e-10
2.79998e-08
2.51022e-08
3.77382e-07
4.47074e-07
2.8159e-08
1.05519e-10
5.88083e-08
1.22604e-07
9.07848e-08
5.70735e-08
3.63823e-08
2.44902e-08
1.76222e-08
1.35962e-08
1.10082e-08
9.0997e-09
7.57783e-09
6.33161e-09
5.30241e-09
4.44921e-09
3.74007e-09
3.14915e-09
2.65558e-09
2.24245e-09
1.89602e-09
1.60499e-09
1.36006e-09
1.15353e-09
9.7914e-10
8.31596e-10
7.07087e-10
6.00946e-10
5.13142e-10
4.33463e-10
3.7746e-10
3.0767e-10
2.82153e-10
2.20372e-10
2.02392e-10
1.35501e-10
1.59397e-07
2.11367e-07
1.18397e-07
4.88839e-08
2.93493e-07
4.04415e-09
2.05578e-07
1.72522e-07
9.96056e-08
6.21151e-08
4.06736e-08
2.59423e-08
1.7339e-08
1.29393e-08
1.04572e-08
8.70508e-09
7.30137e-09
6.13699e-09
5.1645e-09
4.35103e-09
3.66995e-09
3.09901e-09
2.61971e-09
2.21679e-09
1.8777e-09
1.59196e-09
1.35085e-09
1.14709e-09
9.74763e-10
8.28798e-10
7.05497e-10
6.0025e-10
5.13302e-10
4.33896e-10
3.79176e-10
3.08817e-10
2.84872e-10
2.24147e-10
2.05472e-10
1.45986e-10
1.58928e-07
1.9984e-07
6.20882e-08
1.67921e-07
4.52575e-09
9.17846e-07
7.93959e-07
1.79466e-07
5.46109e-08
2.91746e-08
4.05554e-08
2.16193e-08
1.44706e-08
1.15584e-08
9.7667e-09
8.29873e-09
7.03148e-09
5.94756e-09
5.02889e-09
4.25335e-09
3.59946e-09
3.04815e-09
2.58305e-09
2.19041e-09
1.85875e-09
1.5784e-09
1.34119e-09
1.14029e-09
9.70086e-10
8.25728e-10
7.03633e-10
5.99281e-10
5.13164e-10
4.34081e-10
3.80514e-10
3.09715e-10
2.87131e-10
2.27264e-10
2.08028e-10
1.54041e-10
1.40731e-07
1.21854e-07
9.04433e-08
1.40546e-07
5.67823e-08
4.84591e-09
4.249e-08
8.51397e-08
7.23693e-08
5.16159e-08
3.43124e-08
2.22499e-08
1.536e-08
1.17688e-08
9.6245e-09
8.06836e-09
6.81811e-09
5.77689e-09
4.89962e-09
4.15768e-09
3.52938e-09
2.99705e-09
2.54591e-09
2.1635e-09
1.8393e-09
1.56437e-09
1.33113e-09
1.13313e-09
9.65075e-10
8.22326e-10
7.01423e-10
5.97965e-10
5.1264e-10
4.33929e-10
3.81333e-10
3.10252e-10
2.88759e-10
2.29546e-10
2.09908e-10
1.59715e-10
7.38789e-08
8.29919e-08
1.13225e-07
1.1104e-07
4.33221e-08
4.85453e-08
7.94933e-08
6.95858e-08
5.2858e-08
3.6823e-08
2.33142e-08
1.56494e-08
1.23072e-08
1.0449e-08
8.97422e-09
7.68575e-09
6.56393e-09
5.59743e-09
4.76971e-09
4.06284e-09
3.46e-09
2.9463e-09
2.50884e-09
2.13649e-09
1.81967e-09
1.55014e-09
1.32083e-09
1.12573e-09
9.59795e-10
8.18627e-10
6.98885e-10
5.96306e-10
5.11708e-10
4.33406e-10
3.81555e-10
3.10361e-10
2.89651e-10
2.3088e-10
2.11015e-10
1.63131e-10
7.51726e-08
5.77785e-08
5.41567e-08
7.97758e-08
7.36996e-08
4.88002e-08
4.6324e-08
4.58371e-08
3.57723e-08
2.69335e-08
1.97285e-08
1.50334e-08
1.21823e-08
1.02216e-08
8.69328e-09
7.42743e-09
6.3537e-09
5.43515e-09
4.64744e-09
3.9718e-09
3.39264e-09
2.89665e-09
2.47238e-09
2.10979e-09
1.80016e-09
1.53588e-09
1.31042e-09
1.11815e-09
9.54304e-10
8.14674e-10
6.96045e-10
5.94314e-10
5.10355e-10
4.32487e-10
3.81128e-10
3.10001e-10
2.89743e-10
2.31199e-10
2.11285e-10
1.64371e-10
3.66591e-08
4.14985e-08
5.2045e-08
4.72493e-08
4.04118e-08
3.18339e-08
3.4461e-08
3.33441e-08
2.6847e-08
2.01572e-08
1.56729e-08
1.29914e-08
1.11168e-08
9.58835e-09
8.27373e-09
7.13101e-09
6.1376e-09
5.27557e-09
4.52911e-09
3.88402e-09
3.3276e-09
2.84859e-09
2.43694e-09
2.08373e-09
1.78101e-09
1.5218e-09
1.30006e-09
1.11053e-09
9.4868e-10
8.10521e-10
6.92944e-10
5.92013e-10
5.08592e-10
4.31172e-10
3.80042e-10
3.09163e-10
2.89016e-10
2.30479e-10
2.10693e-10
1.63468e-10
4.07588e-08
3.52628e-08
2.83147e-08
3.72069e-08
3.65655e-08
3.03279e-08
2.49225e-08
2.14813e-08
1.85795e-08
1.61203e-08
1.39935e-08
1.21447e-08
1.05432e-08
9.15094e-09
7.93511e-09
6.87122e-09
5.94037e-09
5.12701e-09
4.41777e-09
3.80087e-09
3.26571e-09
2.80267e-09
2.40296e-09
2.05862e-09
1.76245e-09
1.50808e-09
1.28988e-09
1.10296e-09
9.4301e-10
8.06235e-10
6.89635e-10
5.89445e-10
5.0645e-10
4.29488e-10
3.78325e-10
3.0787e-10
2.87495e-10
2.28742e-10
2.09246e-10
1.60399e-10
2.35929e-08
2.44103e-08
2.78309e-08
2.59525e-08
2.34596e-08
2.2598e-08
2.08871e-08
1.8896e-08
1.67949e-08
1.47553e-08
1.29417e-08
1.1351e-08
9.9505e-09
8.70905e-09
7.60484e-09
6.62368e-09
5.7546e-09
4.98764e-09
4.31335e-09
3.72278e-09
3.20746e-09
2.75933e-09
2.37078e-09
2.03473e-09
1.74471e-09
1.49488e-09
1.28003e-09
1.09556e-09
9.37382e-10
8.01894e-10
6.86184e-10
5.86669e-10
5.03989e-10
4.27484e-10
3.76043e-10
3.06172e-10
2.85248e-10
2.2605e-10
2.06993e-10
1.55087e-10
2.32229e-08
2.28586e-08
1.92865e-08
1.96622e-08
1.98339e-08
1.92974e-08
1.80908e-08
1.64103e-08
1.48163e-08
1.33476e-08
1.19501e-08
1.06339e-08
9.41972e-09
8.3111e-09
7.305e-09
6.39751e-09
5.58408e-09
4.85925e-09
4.21686e-09
3.65045e-09
3.15338e-09
2.71899e-09
2.34072e-09
2.01233e-09
1.72799e-09
1.48237e-09
1.27063e-09
1.08843e-09
9.31891e-10
7.97581e-10
6.8267e-10
5.83757e-10
5.01286e-10
4.25232e-10
3.73294e-10
3.04144e-10
2.82381e-10
2.22512e-10
2.04019e-10
1.47411e-10
1.61519e-08
1.62999e-08
1.63245e-08
1.73375e-08
1.6696e-08
1.62258e-08
1.55653e-08
1.44921e-08
1.3378e-08
1.22565e-08
1.11215e-08
1.00066e-08
8.94513e-09
7.95205e-09
7.03348e-09
6.19233e-09
5.42918e-09
4.74244e-09
4.12894e-09
3.58443e-09
3.10392e-09
2.68199e-09
2.31306e-09
1.99164e-09
1.71249e-09
1.47072e-09
1.26182e-09
1.08169e-09
9.26633e-10
7.93387e-10
6.79181e-10
5.80794e-10
4.98437e-10
4.22821e-10
3.70204e-10
3.01883e-10
2.7904e-10
2.18275e-10
2.00448e-10
1.37262e-10
1.42516e-08
1.46287e-08
1.26753e-08
1.32164e-08
1.36477e-08
1.38151e-08
1.35882e-08
1.29256e-08
1.21511e-08
1.13062e-08
1.03942e-08
9.45393e-09
8.52582e-09
7.63392e-09
6.79222e-09
6.00956e-09
5.29089e-09
4.63796e-09
4.05017e-09
3.52518e-09
3.05944e-09
2.64863e-09
2.28805e-09
1.97288e-09
1.69839e-09
1.46007e-09
1.25371e-09
1.07543e-09
9.21707e-10
7.89406e-10
6.75809e-10
5.77874e-10
4.95547e-10
4.20351e-10
3.66924e-10
2.99504e-10
2.75402e-10
2.13531e-10
1.96452e-10
1.24696e-10
1.08429e-08
1.1181e-08
1.02903e-08
1.11297e-08
1.16165e-08
1.19345e-08
1.19839e-08
1.164e-08
1.11349e-08
1.05096e-08
9.77699e-09
8.98017e-09
8.16379e-09
7.3579e-09
6.58215e-09
5.84999e-09
5.1699e-09
4.54642e-09
3.98106e-09
3.47312e-09
3.02028e-09
2.6192e-09
2.26593e-09
1.95624e-09
1.68584e-09
1.45056e-09
1.24642e-09
1.06977e-09
9.17209e-10
7.8573e-10
6.72646e-10
5.75089e-10
4.9273e-10
4.17928e-10
3.63616e-10
2.97133e-10
2.71676e-10
2.08515e-10
1.9225e-10
1.10183e-10
8.88662e-09
9.20932e-09
8.22992e-09
9.02257e-09
9.81098e-09
1.03997e-08
1.06897e-08
1.05979e-08
1.03041e-08
9.85166e-09
9.26268e-09
8.58264e-09
7.85847e-09
7.12424e-09
6.40383e-09
5.71422e-09
5.06678e-09
4.46827e-09
3.92198e-09
3.42853e-09
2.98667e-09
2.59389e-09
2.24687e-09
1.94186e-09
1.67496e-09
1.44227e-09
1.24005e-09
1.06479e-09
9.13219e-10
7.82435e-10
6.69772e-10
5.72524e-10
4.90085e-10
4.15644e-10
3.60438e-10
2.94889e-10
2.68074e-10
2.03495e-10
1.88113e-10
9.4829e-11
6.74875e-09
7.13424e-09
6.55835e-09
7.43842e-09
8.41401e-09
9.19519e-09
9.66871e-09
9.77231e-09
9.64177e-09
9.32328e-09
8.84666e-09
8.25916e-09
7.60879e-09
6.93236e-09
6.25684e-09
5.60191e-09
4.98114e-09
4.4031e-09
3.87244e-09
3.3909e-09
2.9581e-09
2.57216e-09
2.23031e-09
1.92919e-09
1.66519e-09
1.43466e-09
1.23403e-09
1.05995e-09
9.09211e-10
7.79014e-10
6.66692e-10
5.697e-10
4.87153e-10
4.13074e-10
3.56947e-10
2.92429e-10
2.64158e-10
1.98149e-10
1.83693e-10
7.87835e-11
5.07481e-09
5.21947e-09
5.24171e-09
6.33616e-09
7.42408e-09
8.31471e-09
8.90965e-09
9.14934e-09
9.13147e-09
8.90599e-09
8.50912e-09
7.98873e-09
7.39281e-09
6.7597e-09
6.11833e-09
5.49014e-09
4.89022e-09
4.32834e-09
3.81016e-09
3.33819e-09
2.91269e-09
2.53228e-09
2.19455e-09
1.89644e-09
1.63458e-09
1.40549e-09
1.20574e-09
1.03205e-09
8.81293e-10
7.50698e-10
6.37529e-10
5.39544e-10
4.54865e-10
3.80344e-10
3.18243e-10
2.56951e-10
2.17507e-10
1.45616e-10
1.31401e-10
2.20155e-11
3.12259e-09
3.05037e-09
3.29479e-09
4.41684e-09
5.71381e-09
6.69607e-09
7.27792e-09
7.49248e-09
7.43844e-09
7.173e-09
6.73851e-09
6.18274e-09
5.5514e-09
4.88121e-09
4.20051e-09
3.53133e-09
2.89087e-09
2.293e-09
1.74966e-09
1.27171e-09
8.68911e-10
5.48563e-10
3.12993e-10
1.56873e-10
6.64645e-11
2.24437e-11
5.39994e-12
6.93109e-13
1.31307e-14
2.77049e-14
2.32845e-13
5.19707e-13
7.71189e-13
7.64001e-13
9.3698e-13
5.28922e-13
7.43474e-13
4.05193e-13
2.81312e-13
2.57587e-13
3.65845e-11
1.03808e-11
4.22841e-12
6.15321e-12
8.78742e-12
7.82153e-12
5.43523e-12
3.26985e-12
1.63565e-12
6.2228e-13
1.56688e-13
1.75286e-14
2.82485e-16
7.01193e-15
3.66314e-14
8.13918e-14
1.23678e-13
1.50992e-13
1.59528e-13
1.52002e-13
1.34027e-13
1.11273e-13
8.80591e-14
6.70278e-14
4.94094e-14
3.5467e-14
2.49068e-14
1.7178e-14
1.16767e-14
7.84006e-15
5.22281e-15
3.42826e-15
2.30196e-15
1.40653e-15
1.09569e-15
5.004e-16
5.38925e-16
2.3116e-16
1.52543e-16
1.06594e-16
4.40399e-15
1.56063e-17
1.26703e-15
2.46003e-16
4.86113e-17
4.587e-17
7.03879e-18
5.25485e-18
1.73961e-17
4.50562e-17
8.5539e-17
1.25777e-16
1.52207e-16
1.6011e-16
1.52168e-16
1.34067e-16
1.1142e-16
8.84007e-17
6.75425e-17
5.00383e-17
3.61428e-17
2.55597e-17
1.77517e-17
1.21346e-17
8.17868e-18
5.44463e-18
3.58852e-18
2.34509e-18
1.52499e-18
9.84646e-19
6.36605e-19
4.06652e-19
2.65725e-19
1.62476e-19
1.20469e-19
5.50274e-20
6.05101e-20
2.19007e-20
1.35134e-20
1.42252e-20
)
;

boundaryField
{
    inlet
    {
        type            calculated;
        value           nonuniform List<scalar> 
20
(
1.45886e-33
1.02606e-31
9.28324e-32
9.38808e-32
9.37791e-32
9.36733e-32
9.36604e-32
9.36241e-32
9.36009e-32
9.35716e-32
9.35419e-32
9.34993e-32
9.34828e-32
9.34546e-32
9.34247e-32
9.34297e-32
9.35394e-32
9.22458e-32
1.02307e-31
1.45539e-33
)
;
    }
    outlet
    {
        type            calculated;
        value           nonuniform List<scalar> 
27
(
3.15645e-35
2.1134e-35
1.22721e-35
5.78753e-36
1.90325e-36
2.76994e-37
1.15906e-40
1.69233e-37
1.46971e-36
4.80259e-36
1.05125e-35
1.8349e-35
2.7608e-35
3.73899e-35
4.68788e-35
5.44162e-35
5.22572e-35
5.80877e-36
1.11298e-38
4.2826e-41
3.87815e-41
9.06813e-39
3.89131e-36
2.34477e-34
6.4994e-35
5.31964e-35
4.24978e-35
)
;
    }
    lowerWall
    {
        type            fixedValue;
        value           uniform 0;
    }
    upperWall
    {
        type            fixedValue;
        value           uniform 0;
    }
    defaultFaces
    {
        type            empty;
    }
}


// ************************************************************************* //
