/*--------------------------------*- C++ -*----------------------------------*\
| =========                 |                                                 |
| \\      /  F ield         | OpenFOAM: The Open Source CFD Toolbox           |
|  \\    /   O peration     | Version:  2112                                  |
|   \\  /    A nd           | Website:  www.openfoam.com                      |
|    \\/     M anipulation  |                                                 |
\*---------------------------------------------------------------------------*/
FoamFile
{
    version     2.0;
    format      ascii;
    arch        "LSB;label=32;scalar=64";
    class       volScalarField;
    location    "0.05";
    object      p;
}
// * * * * * * * * * * * * * * * * * * * * * * * * * * * * * * * * * * * * * //

dimensions      [0 2 -2 0 0 0 0];

internalField   nonuniform List<scalar> 
1880
(
0.00584818
0.00561248
0.0055233
0.00553029
0.00549078
0.00543024
0.00540685
0.00540373
0.00539587
0.00538311
0.0053736
0.00536878
0.00536725
0.00536881
0.00537417
0.00538412
0.00539951
0.00542139
0.00545114
0.00549038
0.00554139
0.0056069
0.00569034
0.00579846
0.00593185
0.00611772
0.00632642
0.00666062
0.00700348
0.00763618
0.00567357
0.0055472
0.00548931
0.00551029
0.00547977
0.00542174
0.00540001
0.00540014
0.00539382
0.00538085
0.00537095
0.00536587
0.00536393
0.00536489
0.00536949
0.0053785
0.00539271
0.00541311
0.00544089
0.00547773
0.00552522
0.00558658
0.005663
0.00576199
0.00588019
0.00603476
0.00620749
0.00642879
0.00664816
0.00687936
0.0056408
0.00552955
0.00547989
0.00550517
0.00547683
0.00541988
0.00539851
0.00539839
0.00539123
0.00537719
0.00536631
0.00536034
0.00535738
0.00535709
0.00536017
0.00536731
0.00537918
0.00539665
0.00542069
0.00545266
0.00549379
0.00554632
0.00561118
0.00569189
0.00578807
0.0059022
0.00603285
0.00617055
0.00632178
0.00642749
0.00558391
0.00548807
0.00544978
0.00548264
0.00546031
0.0054077
0.00538886
0.00539038
0.00538407
0.00537009
0.0053587
0.0053518
0.00534759
0.00534567
0.00534667
0.00535122
0.00535986
0.00537328
0.00539215
0.00541764
0.0054501
0.0054918
0.00554125
0.00560285
0.0056713
0.00574955
0.00583314
0.00590396
0.00597417
0.00597376
0.00555601
0.00546645
0.00543356
0.00547003
0.0054501
0.00539906
0.00538097
0.0053827
0.00537619
0.0053616
0.00534925
0.00534106
0.00533518
0.00533116
0.00532956
0.0053309
0.00533555
0.00534403
0.0053567
0.00537443
0.00539695
0.00542605
0.00545913
0.00549973
0.00554131
0.00558471
0.00562667
0.00564242
0.00566104
0.00560584
0.00553036
0.00544346
0.00541393
0.00545341
0.0054361
0.0053872
0.00537048
0.00537282
0.00536633
0.00535124
0.00533788
0.00532824
0.00532046
0.00531404
0.00530945
0.00530709
0.00530722
0.00531014
0.00531593
0.00532517
0.00533707
0.00535304
0.00536953
0.00539004
0.00540636
0.00542016
0.00542672
0.00540375
0.00537805
0.00529097
0.00551132
0.0054262
0.00539879
0.00544009
0.00542425
0.00537642
0.00536029
0.0053627
0.0053558
0.00533988
0.00532529
0.00531396
0.00530402
0.0052949
0.00528702
0.00528067
0.00527591
0.0052729
0.00527149
0.00527196
0.00527317
0.00527619
0.005277
0.00527887
0.00527307
0.00526154
0.00523942
0.00518637
0.00512939
0.00501758
0.00549634
0.00541204
0.00538578
0.00542814
0.00541318
0.00536594
0.00535002
0.00535223
0.00534475
0.00532784
0.0053118
0.00529861
0.00528634
0.00527438
0.00526302
0.00525246
0.00524266
0.00523361
0.00522497
0.00521677
0.00520767
0.00519844
0.00518493
0.00517008
0.00514525
0.00511249
0.00506717
0.00499159
0.00490937
0.00478212
0.00548489
0.00540097
0.00537527
0.00541811
0.00540349
0.00535636
0.00534027
0.00534198
0.00533365
0.00531552
0.00529789
0.00528271
0.005268
0.00525305
0.00523813
0.00522333
0.00520852
0.0051935
0.00517782
0.00516133
0.0051426
0.00512212
0.00509585
0.00506631
0.00502541
0.0049752
0.00491129
0.00481876
0.00471854
0.00457945
0.00547667
0.00539283
0.00536721
0.00541009
0.00539537
0.00534794
0.00533132
0.00533223
0.00532282
0.00530332
0.00528397
0.0052667
0.00524945
0.00523152
0.00521306
0.0051941
0.00517439
0.00515364
0.00513132
0.00510712
0.0050796
0.00504901
0.00501158
0.00496939
0.00491515
0.00485076
0.00477216
0.00466726
0.00455327
0.004406
0.00547159
0.00538761
0.00536173
0.00540423
0.00538901
0.00534087
0.00532339
0.00532326
0.00531259
0.00529156
0.00527039
0.00525097
0.00523121
0.00521033
0.00518844
0.00516548
0.00514112
0.00511501
0.00508655
0.00505533
0.00501994
0.00498043
0.00493342
0.0048805
0.00481536
0.00473959
0.00464953
0.00453572
0.0044116
0.00425855
0.00546976
0.00538544
0.00535894
0.00540068
0.00538456
0.00533536
0.0053167
0.00531528
0.00530318
0.00528051
0.00525746
0.00523591
0.00521371
0.00518999
0.00516483
0.0051381
0.00510943
0.00507842
0.00504441
0.00500691
0.00496461
0.00491736
0.00486224
0.00480036
0.00472641
0.00464163
0.0045428
0.00442274
0.00429121
0.00413448
0.00547136
0.00538651
0.00535901
0.00539955
0.00538208
0.00533143
0.00531133
0.00530841
0.00529475
0.00527039
0.00524547
0.00522184
0.00519729
0.00517091
0.00514271
0.00511253
0.00507996
0.00504454
0.00500559
0.00496259
0.00491432
0.00486049
0.0047986
0.00472935
0.00464837
0.00455656
0.00445115
0.0043268
0.00419016
0.00403142
0.00547728
0.00539138
0.00536234
0.00540124
0.005382
0.00532954
0.00530762
0.00530287
0.00528752
0.00526141
0.00523466
0.00520904
0.00518229
0.00515346
0.00512251
0.00508924
0.00505321
0.00501391
0.00497068
0.00492294
0.00486961
0.00481026
0.00474281
0.00466759
0.0045811
0.00448389
0.00437363
0.00424642
0.00410653
0.0039471
0.00548762
0.00539972
0.00536809
0.00540446
0.00538289
0.00532821
0.00530421
0.00529792
0.00528117
0.0052535
0.00522507
0.00519765
0.00516894
0.00513795
0.00510458
0.00506862
0.00502959
0.00498696
0.00494009
0.00488839
0.00483085
0.00476698
0.00469504
0.00461507
0.00452432
0.00442305
0.0043093
0.00418027
0.00403851
0.00387932
0.00550654
0.0054158
0.00538048
0.00541335
0.00538842
0.00533063
0.00530413
0.00529576
0.00527679
0.00524716
0.00521704
0.00518796
0.00515751
0.00512463
0.0050892
0.00505097
0.00500942
0.00496403
0.00491417
0.00485922
0.00479829
0.0047308
0.00465533
0.00457168
0.00447772
0.00437346
0.00425724
0.00412716
0.00398445
0.0038261
0.00552747
0.00543037
0.00538934
0.00541814
0.0053902
0.00532994
0.00530159
0.00529176
0.00527175
0.00524126
0.00521011
0.00517983
0.00514803
0.00511366
0.00507658
0.00503651
0.00499296
0.00494538
0.00489315
0.00483566
0.00477208
0.00470181
0.00462366
0.00453726
0.00444096
0.00433458
0.00421669
0.00408608
0.00394304
0.00378579
0.0055804
0.00546762
0.0054149
0.00543571
0.00540123
0.00533604
0.00530446
0.00529197
0.00526973
0.00523769
0.00520517
0.00517374
0.00514082
0.00510527
0.00506692
0.00502547
0.00498041
0.00493119
0.00487721
0.00481784
0.00475233
0.00468004
0.00459997
0.00451163
0.00441371
0.00430595
0.00418702
0.00405631
0.00391324
0.00375717
0.00560913
0.00548125
0.00542009
0.0054363
0.00539931
0.00533258
0.00530009
0.00528725
0.00526526
0.00523335
0.00520088
0.00516912
0.00513563
0.00509941
0.00506028
0.00501794
0.0049719
0.00492161
0.00486647
0.00480588
0.0047391
0.00466551
0.0045842
0.00449467
0.00439572
0.00428721
0.00416767
0.00403729
0.0038945
0.00373962
0.00578236
0.00554495
0.00545226
0.00545426
0.00540808
0.00533872
0.00530444
0.00528812
0.00526419
0.00523199
0.00519931
0.00516706
0.00513313
0.00509652
0.00505699
0.00501421
0.00496768
0.00491686
0.00486117
0.00479999
0.00473262
0.00465842
0.00457656
0.00448647
0.00438711
0.00427821
0.0041586
0.00402845
0.00388663
0.00373369
0.00802174
0.00671817
0.00613084
0.00551713
0.00480892
0.00400168
0.0029117
0.00269586
-0.000792612
0.00109509
0.00694944
0.00600377
0.0054855
0.00493539
0.00422677
0.00337223
0.00252539
0.00161727
-0.000292791
-0.00191466
0.00650809
0.00584382
0.00540186
0.00481876
0.00420712
0.00345033
0.00258779
0.00166135
1.20166e-06
-0.00134857
0.00590678
0.00541538
0.00485686
0.00442355
0.00366183
0.0030009
0.0022207
0.00121109
8.01209e-05
-0.00119755
0.00554214
0.00513236
0.00472077
0.004206
0.00366739
0.00301064
0.00224819
0.00139391
0.000478972
-0.000539267
0.00516644
0.00484153
0.0043518
0.00392712
0.00332715
0.00273292
0.00207239
0.00127831
0.000561291
-0.000187487
0.00488614
0.00458695
0.00418823
0.00375121
0.00326398
0.00271656
0.00209983
0.00146968
0.000866001
0.000254493
0.00462805
0.00436423
0.00396131
0.0035574
0.00309298
0.00257503
0.00204809
0.00147724
0.000973886
0.0004881
0.0044186
0.00417191
0.00381447
0.00342861
0.00301336
0.00256548
0.00208773
0.00161662
0.00117837
0.00077367
0.00423685
0.00400685
0.00366993
0.0033059
0.00292369
0.00251249
0.00209499
0.00166622
0.00128337
0.000932396
0.00408612
0.00386716
0.00355936
0.00322116
0.00286999
0.00250768
0.00213152
0.00175849
0.00141837
0.0011101
0.00395965
0.0037491
0.00346496
0.00314932
0.00282565
0.00249435
0.00215579
0.00181665
0.00150672
0.00122648
0.0038557
0.00365149
0.0033893
0.00309663
0.00279789
0.00249577
0.00218661
0.0018793
0.00159597
0.00133797
0.00377139
0.00357209
0.0033279
0.00305564
0.00277825
0.00249789
0.00221242
0.00192859
0.00166411
0.00142226
0.00370446
0.00350932
0.00327962
0.00302558
0.00276626
0.002504
0.00223742
0.00197273
0.00172395
0.00149475
0.0036527
0.00346132
0.00324305
0.00300429
0.00275958
0.00251144
0.00225963
0.00200947
0.00177229
0.00155208
0.00361421
0.00342631
0.003217
0.00299026
0.0027568
0.0025195
0.00227904
0.00203993
0.00181146
0.00159791
0.00358744
0.00340276
0.00320083
0.00298354
0.00275848
0.00252906
0.00229699
0.00206564
0.00184334
0.00163398
0.00357127
0.00338881
0.00319195
0.00298104
0.00276145
0.002537
0.00231077
0.00208457
0.0018659
0.00165844
0.00356855
0.00338981
0.00319676
0.00298957
0.00277308
0.00255144
0.00232797
0.00210509
0.00188825
0.00168173
-0.00845579
-0.00867687
-0.00752227
-0.00531229
-0.00286557
-0.00097167
0.000117242
0.000708477
0.000955641
0.00102499
0.00101114
0.000963061
0.000904094
0.000844389
0.000787838
0.000735554
0.000687515
0.000643294
0.000602353
0.000564167
0.00052828
0.000494308
0.000461936
0.000430907
0.000401004
0.000372045
0.000343875
0.00031637
0.00028943
0.000262973
0.000236927
0.00021123
0.000185821
0.000160645
0.000135667
0.000110829
8.61204e-05
6.14873e-05
3.68813e-05
1.2314e-05
-0.0085771
-0.00912423
-0.00787849
-0.00559585
-0.00298431
-0.00101903
8.99267e-05
0.000678304
0.000923198
0.000993073
0.000982536
0.000939083
0.0008848
0.00082918
0.00077593
0.000726226
0.000680173
0.00063747
0.000597697
0.000560417
0.000525233
0.000491814
0.000459884
0.00042921
0.000399594
0.000370867
0.000342888
0.00031554
0.000288731
0.000262384
0.000236431
0.000210813
0.000185471
0.000160353
0.000135425
0.000110632
8.59603e-05
6.1368e-05
3.68014e-05
1.22794e-05
-0.00955325
-0.0108303
-0.00985194
-0.00648543
-0.00337115
-0.00119734
-3.30962e-06
0.000603154
0.000853597
0.000930501
0.0009295
0.000896276
0.000851286
0.000803312
0.000756026
0.000710862
0.000668231
0.000628106
0.000590284
0.000554494
0.000520458
0.000487933
0.000456708
0.000426596
0.000397428
0.000369063
0.000341378
0.000314274
0.000287668
0.000261491
0.000235681
0.000210183
0.000184942
0.000159914
0.000135061
0.000110339
8.57274e-05
6.11962e-05
3.6694e-05
1.22358e-05
-0.0107453
-0.01289
-0.0115022
-0.00809458
-0.00399891
-0.00149828
-0.00017881
0.000470774
0.000744037
0.000840164
0.000857549
0.000840607
0.000808865
0.000771107
0.000731495
0.00069204
0.00065366
0.000616715
0.000581287
0.000547318
0.000514684
0.000483248
0.000452878
0.000423444
0.000394818
0.00036689
0.000339562
0.000312752
0.00028639
0.000260418
0.00023478
0.000209427
0.00018431
0.00015939
0.000134631
0.000109995
8.54607e-05
6.10047e-05
3.65788e-05
1.21959e-05
-0.0116316
-0.0183027
-0.0170191
-0.0103948
-0.0048654
-0.00188286
-0.000449343
0.00026724
0.000587911
0.000720224
0.000766764
0.000772715
0.000758212
0.000733118
0.000702751
0.00067006
0.000636669
0.000603439
0.000570802
0.000538954
0.000507952
0.000477786
0.000448411
0.000419765
0.00039177
0.000364352
0.00033744
0.000310973
0.000284896
0.000259163
0.000233725
0.000208542
0.000183572
0.000158779
0.000134133
0.000109598
8.51562e-05
6.07883e-05
3.64495e-05
1.21518e-05
-0.0139516
-0.0218098
-0.0227614
-0.0126042
-0.00582145
-0.0025869
-0.00092835
-3.96305e-05
0.0003843
0.000578518
0.000664965
0.000698455
0.000703313
0.000691971
0.000671521
0.000646078
0.000618046
0.000588825
0.00055922
0.000529686
0.000500471
0.000471698
0.000443421
0.000415647
0.000388353
0.000361502
0.000335054
0.00030897
0.000283213
0.000257746
0.000232534
0.000207543
0.000182739
0.000158091
0.000133572
0.000109152
8.48165e-05
6.05485e-05
3.63067e-05
1.21036e-05
-0.0106766
-0.0242988
-0.0227598
-0.0128934
-0.00644525
-0.00387432
-0.00199024
-0.000620509
5.9894e-05
0.00038106
0.000536886
0.000612892
0.000643648
0.000648503
0.000638849
0.000620993
0.000598488
0.000573394
0.000546921
0.000519792
0.000492445
0.00046514
0.000438026
0.00041118
0.000384634
0.000358393
0.000332446
0.000306777
0.000281365
0.000256189
0.000231223
0.000206443
0.000181822
0.000157332
0.000132955
0.000108663
8.44447e-05
6.0287e-05
3.61512e-05
1.20512e-05
-0.00883715
-0.0178715
-0.0177348
-0.00966486
-0.00521371
-0.00373173
-0.00228199
-0.000944581
-0.000147075
0.000259152
0.000463276
0.000557312
0.000597343
0.000610247
0.000607847
0.000596117
0.00057857
0.000557406
0.000534022
0.00050932
0.000483889
0.000458105
0.000432206
0.000406339
0.000380589
0.000354999
0.00032959
0.000304368
0.000279331
0.000254471
0.000229775
0.000205227
0.000180806
0.000156493
0.000132273
0.000108122
8.40345e-05
5.99987e-05
3.59797e-05
1.19936e-05
-0.00595867
-0.0105909
-0.00941943
-0.00554462
-0.00429296
-0.00334482
-0.00161666
-0.000441521
5.62503e-05
0.000280719
0.000410366
0.000495624
0.000546024
0.000570017
0.000576281
0.000571095
0.000558533
0.000541219
0.000520849
0.00049853
0.000474997
0.000450736
0.000426069
0.000401205
0.000376276
0.000351365
0.00032652
0.00030177
0.000277131
0.000252609
0.000228202
0.000203903
0.0001797
0.000155578
0.000131529
0.000107533
8.35873e-05
5.96843e-05
3.57927e-05
1.19308e-05
-0.00286009
-0.00650282
-0.00701634
-0.00504916
-0.00382631
-0.002931
-0.00104966
0.000176228
0.00043709
0.00046285
0.000482612
0.00050834
0.000530991
0.000546316
0.000552382
0.000549788
0.000540381
0.000526022
0.000508196
0.000487997
0.000466208
0.000443379
0.00041989
0.000395998
0.000371876
0.000347637
0.000323356
0.000299081
0.000274846
0.00025067
0.00022656
0.000202519
0.000178541
0.000154619
0.000130748
0.000106915
8.31178e-05
5.93541e-05
3.55963e-05
1.18649e-05
-0.00148796
-0.00358346
-0.00393047
-0.00297744
-0.0023416
-0.00199325
-0.00147417
-0.000797671
-0.000255438
8.03219e-05
0.00028269
0.000404766
0.00047425
0.00051036
0.000526099
0.00052896
0.000523269
0.000511753
0.000496223
0.000477918
0.000457701
0.000436183
0.000413789
0.000390815
0.000367465
0.000343877
0.000320147
0.000296343
0.000272511
0.000248681
0.000224871
0.000201092
0.000177345
0.000153627
0.000129941
0.000106274
8.26313e-05
5.90118e-05
3.53928e-05
1.17967e-05
-0.00083137
-0.00192981
-0.00269697
-0.00264565
-0.00196208
-0.00125634
-0.000560742
-6.81116e-05
0.000180559
0.000307211
0.000382008
0.00043316
0.000470737
0.000495932
0.000509324
0.000512867
0.000508808
0.000499104
0.000485291
0.00046852
0.000449641
0.000429275
0.000407869
0.000385739
0.00036311
0.00034014
0.000316941
0.000293593
0.000270155
0.000246668
0.000223157
0.00019964
0.000176125
0.000152615
0.000129116
0.000105619
8.21331e-05
5.86613e-05
3.51845e-05
1.17268e-05
-0.000403753
-0.00103866
-0.00150114
-0.00133795
-0.00104275
-0.000867532
-0.000636933
-0.00033837
-6.64746e-05
0.000142186
0.000289601
0.00038539
0.000443172
0.000476187
0.000492985
0.00049857
0.000496144
0.000487909
0.000475446
0.000459907
0.000442136
0.000422754
0.000402213
0.000380841
0.000358872
0.000336476
0.000313777
0.000290866
0.000267809
0.000244656
0.000221439
0.000198181
0.000174897
0.000151594
0.000128281
0.000104955
8.16286e-05
5.83062e-05
3.49734e-05
1.16561e-05
-7.64268e-06
-0.000389068
-0.000834882
-0.0010323
-0.00088122
-0.00058917
-0.000290081
-3.18297e-05
0.000142277
0.000257243
0.000339186
0.000399394
0.000441462
0.000468248
0.00048285
0.000488005
0.000485943
0.000478428
0.000466825
0.000452176
0.000435267
0.00041669
0.000396885
0.000376175
0.000354797
0.000332926
0.000310692
0.000288192
0.000265498
0.000242666
0.000219734
0.00019673
0.000173673
0.000150574
0.000127447
0.000104291
8.11231e-05
5.79503e-05
3.47619e-05
1.15852e-05
0.000239505
-6.4253e-05
-0.000326165
-0.000415346
-0.000362866
-0.00027158
-0.000134427
7.81763e-06
0.000141904
0.000254231
0.000338758
0.000397996
0.000437548
0.000462168
0.000475409
0.000479929
0.000477775
0.000470528
0.000459405
0.000445346
0.000429071
0.000411126
0.000391927
0.000371782
0.000350923
0.000329524
0.000307716
0.000285597
0.000263246
0.00024072
0.000218061
0.000195302
0.000172465
0.000149565
0.00012662
0.000103633
8.06217e-05
5.75972e-05
3.45519e-05
1.15148e-05
0.000531906
0.000315011
6.21049e-05
-0.000116003
-0.000157099
-8.90015e-05
1.81761e-05
0.00012993
0.00022676
0.000304966
0.000365817
0.000410642
0.000441639
0.000461217
0.000471552
0.000474497
0.000471609
0.000464155
0.000453154
0.00043941
0.000423555
0.000406081
0.000387363
0.000367689
0.000347278
0.000326296
0.000304872
0.000283105
0.000261072
0.000238834
0.000216435
0.00019391
0.000171285
0.000148578
0.000125811
0.000102987
8.01293e-05
5.725e-05
3.43453e-05
1.14455e-05
0.00070275
0.000493927
0.000302878
0.000155064
9.22036e-05
0.00010782
0.000162678
0.000228171
0.000290663
0.000345661
0.00039071
0.000424749
0.000448389
0.000463039
0.000470178
0.000471153
0.00046714
0.000459139
0.000447974
0.000434315
0.000418698
0.000401549
0.0003832
0.000363909
0.000343878
0.000323261
0.00030218
0.000280733
0.000258993
0.000237024
0.000214869
0.000192566
0.000170144
0.000147621
0.000125024
0.000102359
7.96502e-05
5.69121e-05
3.41441e-05
1.1378e-05
0.000887683
0.000706986
0.000528112
0.000374514
0.000282256
0.000261175
0.000281786
0.000316592
0.000353755
0.00038878
0.000418759
0.0004419
0.000457882
0.000467262
0.000470862
0.000469536
0.000464101
0.000455293
0.000443744
0.000429986
0.000414456
0.000397509
0.00037943
0.000360445
0.000340731
0.00032043
0.000299654
0.000278494
0.000257024
0.000235303
0.000213376
0.000191282
0.000169051
0.000146703
0.000124269
0.000101754
7.91886e-05
5.65861e-05
3.39499e-05
1.13128e-05
0.00101591
0.00083992
0.000680677
0.000535185
0.000434032
0.000390353
0.000385004
0.000395478
0.00041174
0.000429817
0.000446636
0.000459918
0.000468708
0.000472948
0.000472959
0.000469201
0.000462183
0.000452403
0.000440318
0.000426325
0.000410766
0.000393925
0.000376037
0.00035729
0.00033784
0.000317809
0.000297302
0.000276401
0.000255175
0.000233682
0.000211966
0.000190066
0.000168013
0.000145831
0.00012355
0.000101178
7.87483e-05
5.62748e-05
3.37643e-05
1.12505e-05
0.00113228
0.000965711
0.000812189
0.000669259
0.00056015
0.000499012
0.000473296
0.000464563
0.000463996
0.000467948
0.000473389
0.000477856
0.000480022
0.000479401
0.000475925
0.000469736
0.00046108
0.000450249
0.000437538
0.000423225
0.000407558
0.000390752
0.000372992
0.000354431
0.000335198
0.000315401
0.000295129
0.000274459
0.000253455
0.00023217
0.000210648
0.000188927
0.00016704
0.000145011
0.000122873
0.000100636
7.83327e-05
5.59806e-05
3.35886e-05
1.11914e-05
0.0012232
0.00105989
0.000912291
0.000772953
0.000660639
0.000588198
0.000547448
0.000523824
0.000509825
0.000502163
0.000497964
0.000494762
0.000491023
0.00048597
0.000479248
0.000470745
0.000460494
0.00044861
0.000435248
0.000420575
0.000404755
0.000387939
0.000370265
0.00035185
0.0003328
0.000313204
0.00029314
0.000272676
0.000251871
0.000230774
0.000209429
0.000187872
0.000166137
0.00014425
0.000122243
0.00010013
7.79447e-05
5.57054e-05
3.3424e-05
1.11361e-05
0.00130174
0.00113873
0.000993132
0.000856005
0.000741645
0.0006611
0.000608894
0.000573622
0.000548944
0.000531844
0.000519631
0.000509911
0.000501059
0.000492103
0.000482478
0.000471874
0.000460152
0.000447281
0.000433295
0.000418266
0.000402281
0.000385435
0.000367822
0.000349528
0.000330634
0.000311214
0.000291334
0.000271054
0.000250428
0.000229501
0.000208316
0.000186908
0.000165311
0.000143552
0.000121665
9.96651e-05
7.75871e-05
5.54512e-05
3.32717e-05
1.10848e-05
0.00136074
0.00119955
0.00105532
0.000920375
0.000805327
0.000719228
0.000658441
0.000614195
0.000581164
0.000556544
0.000537824
0.000522727
0.000509596
0.000497334
0.000485226
0.00047281
0.00045981
0.000446075
0.00043154
0.000416194
0.000400062
0.00038319
0.00036563
0.000347443
0.000328689
0.000309426
0.000289711
0.000269597
0.00024913
0.000228357
0.000207314
0.00018604
0.000164566
0.000142922
0.000121143
9.92436e-05
7.7262e-05
5.52192e-05
3.31325e-05
1.10377e-05
0.00140849
0.0012465
0.00110213
0.000968874
0.00085389
0.000763993
0.000696834
0.0006458
0.000606388
0.000575945
0.000552118
0.000532756
0.000516202
0.000501282
0.000487169
0.000473288
0.000459257
0.000444829
0.000429859
0.000414271
0.000398036
0.000381159
0.000363661
0.000345579
0.000326956
0.000307838
0.000288272
0.000268306
0.000247983
0.000227345
0.00020643
0.000185273
0.000163908
0.000142365
0.000120679
9.88683e-05
7.69712e-05
5.50104e-05
3.30069e-05
1.09949e-05
0.00144547
0.00128165
0.00113625
0.00100423
0.000889466
0.000796774
0.000724837
0.000668749
0.000624607
0.000589834
0.000562193
0.00053964
0.00052053
0.000503632
0.000488037
0.000473088
0.000458317
0.000443408
0.000428152
0.000412423
0.000396151
0.000379308
0.000361893
0.000343924
0.000325429
0.000306447
0.000287019
0.000267186
0.000246991
0.000226472
0.000205667
0.000184612
0.000163341
0.000141884
0.000120278
9.85425e-05
7.67162e-05
5.48253e-05
3.28949e-05
1.09564e-05
0.00146853
0.00130222
0.00115606
0.00102562
0.000911796
0.00081755
0.000742483
0.00068304
0.00063574
0.000598052
0.000567834
0.000543138
0.000522333
0.000504149
0.000487619
0.000472022
0.000456832
0.000441678
0.000426309
0.00041056
0.000394334
0.00037758
0.00036028
0.000342439
0.000324079
0.000305231
0.000285932
0.000266223
0.000246142
0.000225729
0.00020502
0.000184053
0.000162861
0.000141476
0.000119934
9.82626e-05
7.64919e-05
5.46583e-05
3.27901e-05
1.09138e-05
0.00148934
0.00131715
0.00116743
0.00103703
0.000923423
0.000827953
0.000750832
0.000689367
0.000640287
0.000601035
0.000569486
0.000543722
0.000522108
0.000503343
0.000486423
0.000470587
0.000455274
0.000440084
0.00042474
0.000409057
0.000392924
0.000376278
0.000359092
0.000341366
0.000323118
0.000304376
0.000285177
0.000265559
0.000245561
0.000225223
0.000204581
0.000183674
0.000162536
0.000141201
0.000119701
9.80719e-05
7.63368e-05
5.45414e-05
3.27138e-05
1.08813e-05
)
;

boundaryField
{
    inlet
    {
        type            zeroGradient;
    }
    outlet
    {
        type            fixedValue;
        value           uniform 0;
    }
    lowerWall
    {
        type            zeroGradient;
    }
    upperWall
    {
        type            zeroGradient;
    }
    defaultFaces
    {
        type            empty;
    }
}


// ************************************************************************* //
