/*--------------------------------*- C++ -*----------------------------------*\
| =========                 |                                                 |
| \\      /  F ield         | OpenFOAM: The Open Source CFD Toolbox           |
|  \\    /   O peration     | Version:  2112                                  |
|   \\  /    A nd           | Website:  www.openfoam.com                      |
|    \\/     M anipulation  |                                                 |
\*---------------------------------------------------------------------------*/
FoamFile
{
    version     2.0;
    format      ascii;
    arch        "LSB;label=32;scalar=64";
    class       volScalarField;
    location    "0.28";
    object      nut;
}
// * * * * * * * * * * * * * * * * * * * * * * * * * * * * * * * * * * * * * //

dimensions      [0 2 -1 0 0 0 0];

internalField   nonuniform List<scalar> 
1880
(
3.48921e-11
4.16754e-12
4.98503e-13
8.24169e-14
9.81033e-15
1.81378e-13
1.96466e-14
7.90333e-14
5.54772e-14
7.45553e-14
1.56432e-14
5.28738e-14
8.1263e-14
1.13009e-13
5.68661e-14
1.77055e-13
6.79332e-13
2.81196e-13
1.0008e-12
4.01959e-13
3.31024e-13
6.72057e-13
7.28231e-14
2.2287e-12
4.03448e-14
7.16606e-11
9.50237e-12
5.24892e-11
2.13084e-09
1.58866e-10
4.7146e-09
5.46085e-09
2.08566e-09
9.31317e-11
2.11582e-10
3.04995e-11
3.98717e-11
2.55507e-11
4.4752e-11
2.8449e-12
2.2782e-12
9.05113e-13
2.2298e-12
2.18753e-11
3.57334e-13
1.03501e-11
2.1622e-12
1.08931e-11
2.48615e-11
1.51551e-11
3.69952e-11
6.88727e-11
3.16161e-10
4.19683e-10
1.60445e-09
6.51666e-10
1.43539e-09
8.07934e-09
2.38404e-09
1.21107e-08
1.64768e-09
2.452e-09
1.41425e-09
1.26758e-10
2.01513e-09
3.51411e-10
1.91928e-09
3.4487e-09
1.24148e-09
2.81263e-09
1.58642e-09
9.19885e-10
7.09411e-10
1.68577e-09
2.09354e-10
2.44236e-09
4.64722e-12
9.66172e-10
2.74457e-09
5.41715e-12
4.53648e-09
3.54283e-10
9.44726e-11
1.0768e-08
4.90743e-10
1.33811e-08
2.46939e-08
7.87297e-09
3.7016e-08
5.56563e-08
9.21339e-12
2.81162e-10
8.42298e-10
4.61728e-09
2.06623e-09
4.76373e-09
4.10881e-10
1.2683e-08
6.55232e-10
5.16422e-09
8.45375e-09
4.60963e-09
1.89842e-08
4.32274e-09
1.56066e-08
4.33399e-09
1.59899e-08
3.53916e-09
3.74584e-09
6.36246e-09
1.21205e-08
8.37245e-09
1.32929e-08
1.20731e-08
1.23823e-08
1.85188e-08
1.77668e-08
2.45491e-08
2.99151e-08
3.95266e-08
2.11575e-11
6.14487e-10
4.58519e-10
4.09512e-10
7.67235e-10
5.54802e-11
1.9586e-09
8.24557e-10
2.10105e-09
2.20212e-09
8.53127e-09
5.378e-09
4.99378e-09
1.5341e-08
7.31494e-09
1.34269e-09
4.43545e-09
2.71958e-09
1.25805e-08
3.42235e-09
1.04267e-09
7.11101e-09
5.6327e-09
1.08258e-08
8.07216e-09
1.47579e-08
1.49072e-08
1.89751e-08
2.25873e-08
3.32285e-08
2.36134e-12
1.9073e-11
3.88705e-10
3.85781e-11
7.06737e-10
1.07222e-09
6.8578e-10
1.6497e-09
7.79619e-10
3.10644e-09
5.01376e-09
5.09281e-09
3.4388e-10
2.79378e-09
2.75397e-09
6.59142e-10
1.57433e-09
1.18386e-09
1.10479e-09
3.40564e-09
1.66573e-09
6.05385e-09
5.7624e-09
8.31969e-09
9.30475e-09
1.33156e-08
1.62464e-08
1.80569e-08
2.30261e-08
2.38576e-08
2.58299e-12
8.10898e-11
3.64738e-10
2.6657e-10
9.16764e-10
7.30578e-10
2.65953e-09
2.79638e-10
2.42212e-09
3.20123e-09
8.71186e-09
4.2899e-09
3.12699e-09
1.81849e-09
5.13606e-09
1.52496e-09
1.4112e-09
2.57531e-09
2.34488e-09
3.19214e-09
4.36319e-09
4.76176e-09
6.20651e-09
8.2705e-09
9.38713e-09
1.13689e-08
1.49075e-08
1.54314e-08
1.92937e-08
2.25804e-08
4.49182e-12
4.89393e-11
5.15664e-10
2.21705e-10
8.89116e-10
1.42684e-09
1.76977e-09
8.16678e-10
1.55109e-09
3.52815e-09
5.98346e-09
3.68069e-09
1.77125e-09
1.80122e-09
3.19024e-09
1.64706e-09
2.99746e-09
2.90414e-09
4.18274e-09
4.74469e-09
5.53058e-09
6.79515e-09
7.88111e-09
8.3802e-09
1.02894e-08
1.17925e-08
1.49765e-08
1.53744e-08
1.95817e-08
1.91388e-08
1.04015e-11
6.00737e-11
6.61733e-10
4.71816e-10
1.10376e-09
1.67568e-09
2.23891e-09
1.12985e-09
1.9416e-09
3.17152e-09
5.87192e-09
2.87252e-09
2.03264e-09
2.19942e-09
2.31537e-09
2.76412e-09
3.75287e-09
3.14447e-09
4.45596e-09
4.31287e-09
5.98104e-09
7.01738e-09
7.70681e-09
8.60498e-09
9.88073e-09
1.0667e-08
1.36713e-08
1.41908e-08
1.73034e-08
1.81994e-08
2.39531e-11
1.30724e-10
8.45914e-10
8.41128e-10
1.2364e-09
1.89644e-09
2.09136e-09
1.46844e-09
1.98819e-09
2.8987e-09
4.75612e-09
2.73226e-09
2.57701e-09
2.47367e-09
3.01064e-09
3.03401e-09
3.86863e-09
3.87588e-09
5.49205e-09
5.26955e-09
6.3435e-09
6.7715e-09
7.75231e-09
8.40444e-09
9.87733e-09
1.08792e-08
1.33357e-08
1.36363e-08
1.66413e-08
1.66699e-08
7.06228e-11
3.16646e-10
1.01918e-09
1.10872e-09
1.36863e-09
2.14617e-09
1.98617e-09
1.71388e-09
2.22982e-09
2.84112e-09
3.67496e-09
2.79865e-09
3.24163e-09
2.97249e-09
2.80838e-09
3.44892e-09
4.46808e-09
4.13391e-09
5.45372e-09
5.4549e-09
6.09733e-09
6.88286e-09
7.325e-09
8.32513e-09
9.6245e-09
1.04209e-08
1.24764e-08
1.31549e-08
1.52687e-08
1.59693e-08
1.28779e-10
5.95011e-10
1.08594e-09
1.41571e-09
1.48929e-09
2.15906e-09
2.1611e-09
1.97061e-09
2.45904e-09
2.67507e-09
3.82908e-09
2.92774e-09
3.46987e-09
3.26911e-09
3.46915e-09
3.73899e-09
4.57865e-09
4.54711e-09
5.80817e-09
5.44071e-09
6.2177e-09
6.69948e-09
7.46597e-09
8.34433e-09
9.56885e-09
1.03198e-08
1.21118e-08
1.26131e-08
1.44705e-08
1.51606e-08
2.76544e-11
5.62961e-10
1.07505e-09
1.33006e-09
1.52018e-09
2.36245e-09
1.95317e-09
2.02114e-09
2.75635e-09
2.73158e-09
3.06338e-09
3.09891e-09
4.15769e-09
3.35481e-09
3.38658e-09
3.91626e-09
4.97331e-09
4.90094e-09
5.48993e-09
5.71703e-09
6.16933e-09
6.85648e-09
7.40847e-09
8.26231e-09
9.37482e-09
1.01507e-08
1.14144e-08
1.22268e-08
1.35247e-08
1.44878e-08
5.79645e-12
5.54849e-10
8.99988e-10
1.62237e-09
1.56601e-09
2.21987e-09
2.1791e-09
2.26229e-09
2.79491e-09
2.72657e-09
3.39262e-09
3.31864e-09
4.09168e-09
3.64095e-09
3.90145e-09
4.17274e-09
5.0568e-09
5.1069e-09
5.82144e-09
5.85459e-09
6.44223e-09
6.98243e-09
7.56495e-09
8.34055e-09
9.35045e-09
9.95732e-09
1.11109e-08
1.17906e-08
1.29329e-08
1.38541e-08
3.45756e-13
1.95327e-10
7.39273e-10
8.38389e-10
1.48222e-09
2.4567e-09
1.69959e-09
1.90971e-09
2.97556e-09
2.53047e-09
2.70336e-09
3.26228e-09
4.4413e-09
3.4549e-09
3.64234e-09
4.16892e-09
5.28969e-09
5.2784e-09
5.50459e-09
6.02352e-09
6.59016e-09
6.99574e-09
7.45212e-09
8.05869e-09
8.95808e-09
9.66775e-09
1.03962e-08
1.1257e-08
1.21657e-08
1.30766e-08
6.18894e-11
8.57782e-10
1.00033e-09
1.56234e-09
1.49419e-09
2.01724e-09
2.02969e-09
2.31498e-09
2.49213e-09
2.6422e-09
3.18298e-09
3.35395e-09
4.02824e-09
3.63571e-09
3.96575e-09
4.32758e-09
5.18756e-09
5.2999e-09
5.77508e-09
6.27848e-09
6.79716e-09
7.29849e-09
7.66842e-09
8.20459e-09
8.88147e-09
9.32871e-09
1.00069e-08
1.07169e-08
1.15687e-08
1.24368e-08
1.24402e-12
3.76383e-12
3.48657e-10
3.71387e-10
1.26498e-09
1.72854e-09
9.4247e-10
1.13004e-09
2.22728e-09
1.79529e-09
1.95881e-09
3.05901e-09
4.15369e-09
3.17645e-09
3.47543e-09
4.35314e-09
5.15355e-09
5.16003e-09
5.51812e-09
6.34311e-09
7.05756e-09
7.31372e-09
7.46921e-09
7.67243e-09
8.06907e-09
8.44505e-09
8.86747e-09
9.58037e-09
1.05049e-08
1.14228e-08
2.02061e-09
2.67058e-09
1.53999e-09
1.43264e-09
1.85197e-09
2.37209e-09
3.26598e-09
3.93068e-09
3.12763e-09
3.14764e-09
1.37763e-09
9.67311e-10
7.42888e-10
7.98727e-10
2.17982e-10
2.3172e-11
1.8853e-12
5.22666e-12
1.40667e-11
5.0654e-13
5.30001e-13
1.43495e-11
1.19657e-10
1.79219e-10
1.65414e-10
6.80477e-12
1.29702e-11
2.53695e-10
1.07856e-09
2.82141e-09
4.96297e-09
5.49743e-09
1.07478e-09
1.35606e-10
3.32547e-11
4.84151e-12
2.8256e-13
8.02383e-14
2.29273e-12
1.65404e-13
2.23019e-12
2.70309e-12
1.01193e-12
1.48959e-14
1.805e-12
9.84151e-12
1.04896e-11
3.61699e-12
2.21275e-12
3.52102e-12
7.48335e-12
2.08122e-11
4.36761e-11
6.18188e-11
6.11469e-11
3.69701e-11
1.78028e-11
6.90643e-12
1.32692e-12
6.62706e-14
3.47443e-11
4.64706e-12
2.72638e-13
2.0699e-14
5.99461e-14
1.79539e-14
8.44049e-15
1.11647e-15
7.47944e-16
3.92372e-15
2.06993e-15
2.82068e-17
1.94609e-16
8.61153e-15
5.83291e-14
4.21256e-14
3.7141e-16
2.87945e-15
4.4075e-16
3.92959e-14
2.54037e-13
6.41346e-13
7.96205e-13
5.85942e-13
2.55369e-13
7.36386e-14
1.50907e-14
3.17808e-15
2.32584e-17
6.28578e-16
2.25766e-09
1.42249e-09
2.09594e-09
1.11803e-10
3.12829e-11
4.12626e-11
1.2988e-10
1.23672e-12
1.3199e-12
1.93976e-09
1.57426e-08
4.52852e-08
6.78332e-09
4.79808e-09
8.58151e-09
2.19261e-08
2.97067e-08
3.87161e-10
2.14488e-07
3.65564e-08
9.82254e-09
2.7868e-08
6.63233e-08
4.43488e-08
1.52717e-09
2.90405e-08
5.23097e-08
7.08804e-08
6.57195e-08
7.18265e-08
5.69785e-08
2.10712e-08
3.81191e-08
5.03129e-08
4.39212e-08
3.90369e-08
2.90223e-08
4.82603e-08
5.03337e-08
3.182e-08
3.88415e-08
3.3805e-08
3.8733e-08
3.68725e-08
3.13539e-08
3.67757e-08
4.14089e-08
4.50729e-08
3.07503e-08
4.4201e-08
4.20686e-08
2.79402e-08
3.14502e-08
3.48585e-08
3.32612e-08
3.59668e-08
3.71231e-08
3.28862e-08
4.01644e-08
4.43074e-08
3.19772e-08
2.58244e-08
2.93131e-08
3.032e-08
2.84633e-08
2.98256e-08
3.48042e-08
3.38305e-08
3.63769e-08
3.6525e-08
3.17785e-08
2.40453e-08
2.57539e-08
2.78355e-08
2.82094e-08
2.92893e-08
3.10809e-08
3.12261e-08
3.12275e-08
3.23684e-08
2.56415e-08
2.18949e-08
2.44147e-08
2.5532e-08
2.50116e-08
2.66261e-08
2.92866e-08
2.8181e-08
2.69285e-08
2.85387e-08
2.36387e-08
2.0382e-08
2.22135e-08
2.36254e-08
2.42271e-08
2.50835e-08
2.54956e-08
2.66334e-08
2.55364e-08
2.37322e-08
2.0235e-08
1.89994e-08
2.09265e-08
2.18007e-08
2.19957e-08
2.35564e-08
2.41059e-08
2.31709e-08
2.20858e-08
2.22038e-08
1.85616e-08
1.76877e-08
1.93593e-08
2.05666e-08
2.08776e-08
2.15581e-08
2.16006e-08
2.17328e-08
2.06945e-08
1.90904e-08
1.66112e-08
1.66602e-08
1.81789e-08
1.90834e-08
1.9384e-08
2.02364e-08
2.00898e-08
1.93846e-08
1.86538e-08
1.77692e-08
1.55969e-08
1.56476e-08
1.69673e-08
1.79555e-08
1.82865e-08
1.8633e-08
1.84485e-08
1.80544e-08
1.73086e-08
1.59933e-08
1.43267e-08
1.4765e-08
1.59553e-08
1.68229e-08
1.71799e-08
1.74933e-08
1.7213e-08
1.66182e-08
1.59535e-08
1.48409e-08
1.36328e-08
1.39494e-08
1.50259e-08
1.57624e-08
1.62071e-08
1.63716e-08
1.6121e-08
1.5614e-08
1.49514e-08
1.37989e-08
1.25146e-08
1.30447e-08
1.41586e-08
1.47639e-08
1.53194e-08
1.53916e-08
1.52606e-08
1.45657e-08
1.40562e-08
1.2649e-08
4.50739e-09
4.28696e-09
6.11515e-09
5.63339e-09
7.00829e-09
5.90276e-09
6.39712e-09
4.76498e-09
4.59239e-09
2.92121e-09
2.91161e-14
4.00555e-13
7.59168e-13
3.34428e-12
6.83471e-12
1.32787e-11
1.73232e-11
2.31382e-11
2.34056e-11
2.10878e-11
1.02157e-14
7.04238e-15
9.00388e-15
1.17089e-14
1.6865e-14
3.31024e-14
3.84378e-14
6.44441e-14
5.56501e-14
3.9392e-14
4.6459e-08
9.55667e-09
6.12038e-08
3.42964e-08
1.23409e-08
5.90335e-09
1.46447e-09
8.6707e-10
4.29427e-10
4.87681e-10
6.8062e-10
1.82267e-09
6.51224e-09
2.5981e-08
1.07156e-07
1.09869e-07
1.94823e-08
2.44347e-09
3.91844e-10
8.31339e-11
2.06253e-11
4.54807e-12
7.03956e-13
4.29704e-14
6.7161e-17
2.28347e-14
7.32386e-14
1.07742e-13
1.03069e-13
7.44219e-14
4.21009e-14
2.04131e-14
8.39527e-15
3.29446e-15
1.21373e-15
4.58012e-16
1.94953e-16
6.88165e-17
4.77098e-17
1.0158e-16
5.32735e-08
6.58049e-07
2.15366e-08
1.08653e-07
1.79842e-07
1.29441e-07
3.3887e-10
1.11007e-06
5.08035e-07
3.59262e-10
1.04627e-08
4.08237e-08
8.989e-08
1.08881e-07
1.17969e-07
1.13604e-07
9.82665e-08
7.87844e-08
5.74895e-08
3.54976e-08
1.7064e-08
6.39006e-09
2.03415e-09
5.59093e-10
1.23585e-10
1.98038e-11
1.78365e-12
4.52022e-14
9.36436e-14
3.22316e-13
5.27121e-13
5.11856e-13
4.3339e-13
2.81311e-13
1.91935e-13
1.05521e-13
6.862e-14
3.27677e-14
2.12993e-14
7.58609e-15
5.22337e-08
8.56695e-10
3.55778e-08
1.19063e-07
4.95083e-11
5.10977e-08
9.73345e-07
1.67626e-06
7.29641e-07
7.91592e-08
4.06012e-10
1.29648e-09
1.4879e-08
4.65927e-08
7.21555e-08
8.87487e-08
9.0532e-08
8.17005e-08
7.18507e-08
6.10798e-08
4.82855e-08
3.38403e-08
1.73353e-08
6.32127e-09
2.22506e-09
9.44367e-10
4.76921e-10
2.19729e-10
7.45902e-11
1.76155e-11
2.40351e-12
2.75188e-13
9.68363e-14
2.25069e-13
4.32771e-13
4.35899e-13
5.30102e-13
3.58193e-13
3.32262e-13
1.46775e-13
1.57975e-09
6.18985e-08
1.50726e-07
3.94279e-08
3.39963e-08
1.69929e-07
1.42296e-06
2.0384e-06
1.19435e-06
2.30155e-07
1.39855e-08
2.87578e-12
4.95209e-09
2.50183e-08
4.79864e-08
6.66919e-08
8.08627e-08
7.33754e-08
5.79195e-08
4.91864e-08
3.02131e-08
1.41329e-08
1.1746e-08
1.54986e-08
8.20679e-09
1.4671e-09
4.73842e-10
6.20089e-10
1.15456e-09
1.57612e-09
1.46382e-09
9.52715e-10
4.06272e-10
1.04304e-10
9.01498e-12
9.86523e-14
2.2085e-12
5.40694e-12
1.37321e-11
8.49135e-12
1.69015e-08
1.5494e-07
1.59008e-07
2.28601e-08
8.97015e-08
8.18445e-07
1.98442e-06
2.36085e-06
1.86457e-06
8.40935e-07
1.27685e-07
3.60135e-10
4.7606e-09
2.69337e-08
5.27298e-08
5.82432e-08
7.25701e-08
6.99648e-08
5.33264e-08
3.68438e-08
2.12504e-08
6.61338e-10
2.01462e-09
4.17753e-10
1.89389e-12
5.13697e-10
4.58606e-09
9.23773e-10
3.8208e-10
9.96006e-10
1.82805e-09
2.19209e-09
1.97171e-09
1.49721e-09
9.50048e-10
5.08135e-10
1.49205e-10
2.11958e-11
1.08066e-11
3.54538e-12
2.04749e-06
1.20608e-07
7.92963e-08
1.55699e-09
1.19262e-07
4.33094e-07
1.45838e-06
1.94204e-06
1.44617e-06
9.29147e-07
6.36477e-07
8.47461e-08
4.34688e-10
3.0738e-08
7.32229e-08
6.81229e-08
5.16894e-08
5.61495e-08
1.30122e-08
9.74856e-09
2.45091e-08
1.54231e-08
6.91839e-08
1.56473e-09
4.92226e-12
3.19695e-11
3.13324e-10
9.587e-10
2.24162e-09
2.99264e-09
2.06518e-09
1.85974e-09
1.74525e-09
1.49727e-09
1.12252e-09
8.22146e-10
6.07718e-10
5.5113e-10
4.94139e-10
5.10637e-10
1.53636e-08
2.53681e-07
2.18051e-07
1.99696e-07
2.08262e-10
7.04564e-07
2.28586e-06
2.40936e-06
1.74894e-06
1.20982e-06
1.12605e-06
4.60397e-07
3.35045e-09
2.08265e-08
8.54142e-08
9.01275e-08
6.94183e-08
4.70273e-08
3.87618e-08
6.75675e-10
2.24915e-09
2.01096e-08
4.86569e-09
6.41186e-09
1.08393e-08
4.72894e-09
2.63535e-09
1.74204e-09
1.34504e-09
1.07822e-09
1.08618e-09
1.32154e-09
1.49159e-09
1.13719e-09
7.62507e-10
4.83835e-10
3.51959e-10
2.76643e-10
2.87088e-10
3.70198e-10
5.64489e-08
2.66246e-08
1.0147e-08
5.6448e-08
6.29462e-08
3.77728e-09
6.22399e-07
1.816e-06
1.76556e-06
1.69052e-06
1.6378e-06
6.83466e-07
1.96502e-12
6.17017e-08
9.49948e-08
4.98045e-08
4.59964e-09
4.3216e-08
4.79627e-08
3.74822e-08
1.91056e-08
2.75652e-08
7.72468e-09
2.66197e-11
5.47367e-11
2.47525e-09
1.34203e-08
1.74504e-08
9.27267e-09
3.36177e-09
9.9421e-10
1.49621e-10
5.98952e-12
6.24284e-12
9.09186e-11
1.65727e-10
3.26085e-10
3.46786e-10
4.89738e-10
5.75533e-10
2.70888e-10
1.3905e-08
1.57517e-09
5.45945e-08
5.31473e-08
1.33666e-07
8.82095e-07
1.53542e-06
1.54054e-06
1.59628e-06
1.59447e-06
2.94788e-07
4.6298e-08
8.69978e-08
7.44883e-08
6.521e-08
3.25957e-08
1.09032e-08
3.05074e-08
3.62049e-08
3.17587e-08
2.90402e-08
2.53064e-08
1.50403e-08
3.08925e-09
5.04732e-10
4.78508e-10
1.39789e-09
4.55178e-09
9.77399e-09
9.80412e-09
4.31922e-09
7.76721e-10
2.50223e-12
7.16412e-10
5.21e-09
9.43734e-10
1.11763e-11
2.78761e-10
3.55809e-10
6.93672e-08
8.38376e-08
3.07769e-08
6.48275e-08
1.30322e-07
5.38269e-07
1.12955e-06
1.18181e-06
1.16082e-06
1.117e-06
2.46062e-07
5.50799e-08
1.31774e-07
9.02976e-08
6.58143e-08
5.94673e-08
4.7971e-08
4.13542e-08
3.88235e-08
3.7209e-08
3.34724e-08
1.48558e-08
4.65433e-09
1.24801e-08
1.74387e-09
3.53271e-10
1.64189e-09
7.23465e-09
3.82853e-09
3.47351e-09
4.39849e-09
5.70408e-09
5.75699e-09
4.14004e-09
1.89506e-09
3.45299e-10
1.562e-10
2.69173e-10
6.9914e-10
6.97484e-10
1.30191e-08
3.91033e-08
3.24108e-08
3.10772e-09
3.33976e-11
5.85989e-09
3.30265e-08
1.23923e-09
1.76267e-08
2.50446e-08
9.3259e-08
8.79043e-08
1.02819e-07
7.69815e-08
4.32346e-08
3.52309e-08
4.36025e-08
4.44804e-08
3.55146e-08
2.72973e-08
2.23101e-08
1.31467e-08
1.60158e-08
1.51548e-08
1.48572e-08
1.04935e-07
3.15316e-08
8.23435e-09
4.78971e-09
8.88495e-09
2.87265e-08
2.85939e-09
4.24384e-09
3.15466e-09
2.19807e-09
1.54131e-09
7.93041e-10
3.69005e-10
7.149e-11
3.81106e-10
1.78263e-08
7.9569e-09
5.0013e-08
5.10327e-08
5.23874e-08
4.51955e-08
4.70749e-08
5.98322e-08
5.95092e-08
7.26985e-08
9.06399e-08
7.42991e-08
4.93705e-08
5.14879e-08
5.22599e-08
5.27074e-08
3.49781e-08
1.38514e-09
9.94896e-09
2.03955e-08
2.17954e-08
1.22937e-08
2.48263e-07
2.04856e-08
1.13766e-08
9.72244e-10
5.39622e-10
9.55501e-09
6.84523e-10
1.76146e-09
6.34491e-09
1.21274e-08
1.42289e-08
8.0938e-09
5.84901e-10
1.19244e-11
4.77004e-10
6.69955e-10
9.79644e-10
7.65214e-10
2.7818e-08
6.17251e-09
3.96449e-08
4.98593e-08
4.53504e-08
5.16473e-08
5.94977e-08
5.61765e-08
5.48904e-08
4.26737e-08
6.24326e-08
6.43439e-08
5.5501e-08
3.64678e-08
4.27573e-08
4.08633e-08
4.01073e-08
2.60808e-08
2.53567e-08
2.08052e-08
2.5329e-08
2.58923e-08
1.92854e-08
1.39739e-08
2.02237e-08
3.64413e-09
1.56128e-10
1.5806e-10
2.63302e-10
1.2382e-09
3.8843e-09
7.3669e-09
8.1647e-09
5.63274e-09
2.93014e-09
1.41668e-09
1.15436e-09
8.07939e-10
9.53974e-10
7.14318e-10
3.42565e-08
2.61645e-08
3.78112e-08
4.4143e-08
4.02244e-08
4.83492e-08
5.14613e-08
5.05031e-08
4.94624e-08
4.17374e-08
3.13343e-08
5.45931e-08
4.48066e-08
4.04355e-08
3.88435e-08
3.48298e-08
2.78255e-08
2.26382e-08
2.26534e-08
2.47372e-08
2.82795e-09
1.50211e-08
1.27186e-08
1.7587e-10
1.60004e-09
2.21813e-09
1.08809e-08
7.43447e-08
1.50589e-07
5.82338e-08
7.32842e-10
5.44989e-09
5.96628e-09
4.24404e-09
2.55925e-09
1.16081e-09
6.71774e-10
3.19867e-10
6.72806e-10
6.06468e-10
2.5913e-08
2.26487e-08
3.09065e-08
3.88704e-08
3.78638e-08
3.84268e-08
4.14731e-08
4.02402e-08
3.88737e-08
4.04025e-08
3.52881e-08
2.84849e-08
4.12233e-08
4.47196e-08
3.43564e-08
3.05104e-08
2.83296e-08
8.43959e-09
8.77211e-09
2.64227e-08
1.57583e-08
1.42023e-08
4.95288e-09
5.07233e-09
1.42729e-08
1.45568e-08
1.54945e-08
4.91542e-09
1.30735e-07
1.33115e-07
5.36749e-08
7.8449e-09
2.01499e-10
2.53131e-10
1.14665e-09
1.4998e-09
1.61795e-09
1.19332e-09
1.15143e-09
8.09172e-10
2.69872e-08
2.33994e-08
2.81493e-08
3.24945e-08
3.37345e-08
3.30795e-08
3.48352e-08
3.23304e-08
2.93718e-08
3.56405e-08
3.22088e-08
2.91692e-08
2.7419e-08
3.4898e-08
2.75651e-08
2.15262e-08
2.96994e-08
2.8733e-08
1.88248e-08
1.67676e-08
1.51614e-08
1.41567e-08
1.64537e-08
4.5644e-10
9.58736e-10
1.07051e-08
4.88449e-11
6.88604e-11
9.66036e-10
3.6087e-09
6.40337e-09
7.66293e-09
6.95041e-09
5.31615e-09
3.66706e-09
2.32627e-09
1.53017e-09
9.23022e-10
8.26167e-10
5.98175e-10
2.16481e-08
2.17426e-08
2.38434e-08
2.73238e-08
2.86255e-08
2.81233e-08
2.83987e-08
2.77647e-08
2.92e-08
2.34731e-08
2.87885e-08
3.2385e-08
2.57437e-08
2.22152e-08
2.90969e-08
2.87929e-08
1.66142e-08
2.12071e-08
1.79089e-08
2.02353e-08
7.11933e-09
6.0528e-09
1.53068e-08
3.8348e-09
4.62008e-10
3.95582e-09
4.4728e-08
8.88256e-08
5.06373e-08
6.40398e-09
9.6734e-10
1.85774e-09
2.88182e-09
3.09224e-09
2.22936e-09
2.13781e-09
1.66677e-09
1.18793e-09
1.07237e-09
7.39341e-10
2.17392e-08
2.03674e-08
2.15768e-08
2.34237e-08
2.31885e-08
2.44243e-08
2.47425e-08
2.28802e-08
2.35461e-08
2.49048e-08
2.11356e-08
2.40714e-08
2.4322e-08
2.37264e-08
1.83298e-08
2.32732e-08
1.90652e-08
1.74968e-08
1.48651e-08
1.99642e-08
1.59988e-08
9.20423e-09
9.62344e-09
9.64597e-09
1.08121e-08
1.17773e-08
9.54321e-09
6.38358e-09
4.8434e-09
5.33073e-09
5.98597e-09
5.81934e-09
5.07688e-09
4.06418e-09
3.14247e-09
2.23972e-09
1.68812e-09
1.09706e-09
1.06853e-09
5.71387e-10
1.8352e-08
1.83416e-08
1.86081e-08
1.99212e-08
2.0701e-08
1.96322e-08
2.03766e-08
2.14204e-08
1.9539e-08
2.05986e-08
2.23106e-08
2.01915e-08
1.95852e-08
2.34141e-08
2.08803e-08
1.76327e-08
1.94128e-08
2.13915e-08
1.75509e-08
1.49972e-08
1.60888e-08
1.69566e-08
1.54244e-08
1.15728e-08
7.14622e-09
4.33019e-09
5.50846e-09
7.65117e-09
8.72557e-09
8.40879e-09
7.2347e-09
5.73119e-09
4.32092e-09
3.22731e-09
2.42047e-09
1.93001e-09
1.55184e-09
1.14757e-09
9.69929e-10
6.81429e-10
1.73678e-08
1.6749e-08
1.66148e-08
1.71025e-08
1.70148e-08
1.74402e-08
1.70893e-08
1.66575e-08
1.79142e-08
1.74309e-08
1.70622e-08
1.92139e-08
1.85991e-08
1.6648e-08
1.87927e-08
1.98215e-08
1.70491e-08
1.5423e-08
1.69542e-08
1.75738e-08
1.54119e-08
1.18577e-08
1.00217e-08
1.05672e-08
1.07774e-08
1.00828e-08
9.09886e-09
7.77715e-09
6.41447e-09
5.29657e-09
4.60797e-09
3.9895e-09
3.4627e-09
2.81803e-09
2.2765e-09
1.66158e-09
1.28263e-09
8.28336e-10
7.3125e-10
4.80857e-10
1.53562e-08
1.49673e-08
1.46131e-08
1.4718e-08
1.47126e-08
1.43075e-08
1.44772e-08
1.4687e-08
1.42994e-08
1.50044e-08
1.56628e-08
1.51465e-08
1.59893e-08
1.70303e-08
1.62028e-08
1.58131e-08
1.69876e-08
1.71763e-08
1.56592e-08
1.46145e-08
1.48856e-08
1.45673e-08
1.31224e-08
1.10698e-08
8.99452e-09
7.43537e-09
7.02275e-09
7.13636e-09
7.08079e-09
6.55461e-09
5.69254e-09
4.66384e-09
3.64779e-09
2.75145e-09
1.98687e-09
1.40135e-09
9.52923e-10
7.27288e-10
6.47755e-10
6.33906e-10
1.41355e-08
1.35685e-08
1.2949e-08
1.26945e-08
1.24012e-08
1.22379e-08
1.20503e-08
1.20366e-08
1.24285e-08
1.25527e-08
1.29785e-08
1.37694e-08
1.38064e-08
1.39045e-08
1.48864e-08
1.53462e-08
1.48048e-08
1.46253e-08
1.48991e-08
1.46051e-08
1.35101e-08
1.19689e-08
1.05976e-08
9.80171e-09
9.40543e-09
8.71833e-09
7.87848e-09
6.87439e-09
5.79892e-09
4.66637e-09
3.75416e-09
2.91328e-09
2.30775e-09
1.71923e-09
1.35288e-09
9.75198e-10
8.16639e-10
5.94634e-10
5.53327e-10
4.88457e-10
1.29391e-08
1.22555e-08
1.15444e-08
1.11118e-08
1.07415e-08
1.04349e-08
1.04202e-08
1.05164e-08
1.07218e-08
1.12148e-08
1.15992e-08
1.17517e-08
1.21351e-08
1.23867e-08
1.20458e-08
1.17365e-08
1.16105e-08
1.11132e-08
1.01043e-08
8.8635e-09
8.12858e-09
7.62909e-09
7.05452e-09
6.26837e-09
5.46085e-09
4.60389e-09
4.00499e-09
3.59007e-09
3.31957e-09
2.89877e-09
2.47386e-09
1.93605e-09
1.50066e-09
1.05431e-09
7.96461e-10
5.69834e-10
5.21601e-10
4.03234e-10
4.29226e-10
3.09799e-10
1.18801e-08
1.11551e-08
1.0344e-08
9.73249e-09
9.28492e-09
9.00276e-09
8.88701e-09
8.85369e-09
8.7719e-09
8.39352e-09
7.67801e-09
6.51998e-09
4.71324e-09
2.84067e-09
1.51104e-09
6.66168e-10
1.8954e-10
2.80063e-11
3.76846e-12
9.77603e-13
7.64322e-15
2.61236e-13
4.68826e-13
3.39335e-14
4.13334e-13
4.92457e-12
2.06867e-11
3.87133e-11
4.52917e-11
2.98248e-11
1.70833e-11
7.17309e-12
5.36204e-12
3.62026e-12
4.13611e-12
2.88372e-12
3.47046e-12
2.41176e-12
2.56985e-12
2.16123e-12
2.52989e-09
2.09978e-09
1.84176e-09
1.7914e-09
1.7695e-09
1.7801e-09
1.80885e-09
1.68268e-09
1.41243e-09
1.10596e-09
7.1219e-10
3.20864e-10
9.17634e-11
1.08489e-11
8.67905e-13
3.02333e-11
1.2154e-10
2.0114e-10
2.27532e-10
2.13842e-10
1.67168e-10
1.10298e-10
5.68519e-11
2.01993e-11
4.17241e-12
4.56252e-13
2.42969e-14
1.68542e-14
3.89844e-14
1.2578e-13
2.4193e-13
4.51272e-13
6.7967e-13
8.52715e-13
1.0207e-12
9.37648e-13
9.88092e-13
6.64138e-13
6.84259e-13
2.74209e-13
2.00716e-11
1.70409e-11
1.86648e-11
2.39933e-11
2.93902e-11
3.46488e-11
3.98757e-11
4.13924e-11
3.71704e-11
2.79731e-11
1.6686e-11
7.39476e-12
1.55801e-12
4.52426e-14
1.04413e-12
5.80188e-12
1.38573e-11
2.26776e-11
2.74467e-11
2.40867e-11
1.5524e-11
7.8869e-12
3.19982e-12
1.00227e-12
2.13148e-13
1.74381e-14
1.54955e-16
2.05119e-14
7.92382e-14
1.12246e-13
1.26093e-13
9.80406e-14
8.297e-14
5.25749e-14
4.22514e-14
2.46949e-14
1.90568e-14
1.09986e-14
6.48393e-15
3.918e-15
2.79962e-14
1.68273e-14
3.26013e-14
6.34617e-14
1.04189e-13
1.59561e-13
2.11977e-13
2.27788e-13
2.13693e-13
1.7347e-13
9.21547e-14
1.79675e-14
2.24412e-15
4.30757e-14
2.43003e-13
6.03009e-13
8.48003e-13
7.51527e-13
4.34184e-13
1.6094e-13
3.97572e-14
5.08271e-15
3.91494e-16
2.8536e-15
9.62195e-15
1.41926e-14
1.2044e-14
6.96468e-15
3.64236e-15
2.24138e-15
1.48153e-15
1.31989e-15
9.93242e-16
9.45322e-16
6.80162e-16
5.50522e-16
4.0067e-16
2.09431e-16
2.5344e-16
1.12449e-16
)
;

boundaryField
{
    inlet
    {
        type            calculated;
        value           nonuniform List<scalar> 
20
(
1.52882e-34
8.22461e-33
1.04824e-32
2.09166e-33
3.26017e-33
2.47752e-33
2.79985e-33
2.78179e-33
2.65423e-33
2.30513e-33
1.47638e-33
5.0503e-34
1.25262e-33
9.19892e-34
3.27735e-34
7.33103e-34
2.1402e-34
6.04203e-33
5.38688e-33
1.43187e-34
)
;
    }
    outlet
    {
        type            calculated;
        value           nonuniform List<scalar> 
27
(
1.47106e-33
4.62446e-34
7.66918e-34
7.22809e-34
6.48779e-36
1.61715e-33
4.17378e-36
9.14328e-34
3.68189e-38
8.76734e-37
2.33749e-34
1.39142e-33
1.65633e-33
2.47838e-33
2.52665e-33
1.26361e-33
1.71086e-35
1.13925e-37
5.17551e-38
2.94439e-38
4.24225e-38
7.39846e-38
7.02981e-39
2.1646e-35
1.17506e-33
2.26072e-33
1.52963e-33
)
;
    }
    lowerWall
    {
        type            fixedValue;
        value           uniform 0;
    }
    upperWall
    {
        type            fixedValue;
        value           uniform 0;
    }
    defaultFaces
    {
        type            empty;
    }
}


// ************************************************************************* //
