/*--------------------------------*- C++ -*----------------------------------*\
| =========                 |                                                 |
| \\      /  F ield         | OpenFOAM: The Open Source CFD Toolbox           |
|  \\    /   O peration     | Version:  2112                                  |
|   \\  /    A nd           | Website:  www.openfoam.com                      |
|    \\/     M anipulation  |                                                 |
\*---------------------------------------------------------------------------*/
FoamFile
{
    version     2.0;
    format      ascii;
    arch        "LSB;label=32;scalar=64";
    class       volScalarField;
    location    "0.28";
    object      p;
}
// * * * * * * * * * * * * * * * * * * * * * * * * * * * * * * * * * * * * * //

dimensions      [0 2 -2 0 0 0 0];

internalField   nonuniform List<scalar> 
1880
(
0.00322057
0.00308547
0.00299127
0.00294512
0.00291647
0.00289582
0.00287498
0.00285776
0.00284
0.00282589
0.00281664
0.00280899
0.00280338
0.00280292
0.00280318
0.00281067
0.00282022
0.0028386
0.00286233
0.00289034
0.00292715
0.00297574
0.00304054
0.0031232
0.00323675
0.00336013
0.0035154
0.00369633
0.0038623
0.00404367
0.00303947
0.00300932
0.00296596
0.00293123
0.00290163
0.00288009
0.00286119
0.0028475
0.00283165
0.00281647
0.00280896
0.00279917
0.0027938
0.00278948
0.00279252
0.00279697
0.00280581
0.00282209
0.00284239
0.00286942
0.00289596
0.00295029
0.00299469
0.00309697
0.0031708
0.00331343
0.00343568
0.00359079
0.00375338
0.00390228
0.00300604
0.00298706
0.00295511
0.00292444
0.0028966
0.0028729
0.00285433
0.00284032
0.00282535
0.00280946
0.00280165
0.00279134
0.00278186
0.00277748
0.0027795
0.00278284
0.00278552
0.00279634
0.00281496
0.00283653
0.00286509
0.00290359
0.00295039
0.00301654
0.00308664
0.00317835
0.00326708
0.0033724
0.00344995
0.00350833
0.00294774
0.00293875
0.00292052
0.0029002
0.00287882
0.00285711
0.00283992
0.00282603
0.00281169
0.00279516
0.00278818
0.00277718
0.00276602
0.00275886
0.00275866
0.00276043
0.00275713
0.00276658
0.00277604
0.00279587
0.00281248
0.00284131
0.00287509
0.00292039
0.00297168
0.00302357
0.00308718
0.00312899
0.00316663
0.00318478
0.00291877
0.00291328
0.00290086
0.00288513
0.00286778
0.00284681
0.00283036
0.00281562
0.00280106
0.00278321
0.00277573
0.00276364
0.00275032
0.00274037
0.00273722
0.00273551
0.0027293
0.00273173
0.0027358
0.00274795
0.00275637
0.00277366
0.00279352
0.00282022
0.00284752
0.00287366
0.00289773
0.00290602
0.0029024
0.00287128
0.00289134
0.00288715
0.00287737
0.00286488
0.00285081
0.00283176
0.00281623
0.00280185
0.0027867
0.00276809
0.00275912
0.00274693
0.00273102
0.00271883
0.00271191
0.00270739
0.00269697
0.00269226
0.00269201
0.00269366
0.00269654
0.00269838
0.00270625
0.00271384
0.00272031
0.00272083
0.00271754
0.00269406
0.00265653
0.00259184
0.00287065
0.00286738
0.00285944
0.00284893
0.00283712
0.00281919
0.00280431
0.00278959
0.00277383
0.00275388
0.00274335
0.00272982
0.00271161
0.00269675
0.00268607
0.00267795
0.0026627
0.00265229
0.00264515
0.00263906
0.00263247
0.00262269
0.00261753
0.00260865
0.00259646
0.00257655
0.00254749
0.00250011
0.00243559
0.00234638
0.00285398
0.00285115
0.00284397
0.00283444
0.00282355
0.0028064
0.00279146
0.00277668
0.00275981
0.00273896
0.0027262
0.0027116
0.00269076
0.00267296
0.0026591
0.00264626
0.00262748
0.00260929
0.00259746
0.00258238
0.00256708
0.00254726
0.00252863
0.00250619
0.00247777
0.00243856
0.00239099
0.00232297
0.00223843
0.00213013
0.00284099
0.0028383
0.00283144
0.00282232
0.00281182
0.00279491
0.00277967
0.00276445
0.00274639
0.00272439
0.00270949
0.00269342
0.00266973
0.00264918
0.00263165
0.00261488
0.00259129
0.00256701
0.00254936
0.0025265
0.00250288
0.00247318
0.00244299
0.00240847
0.00236517
0.00231139
0.00224737
0.00216343
0.00206345
0.00194163
0.00283143
0.00282872
0.00282181
0.00281269
0.00280196
0.00278487
0.00276886
0.002753
0.0027335
0.00271019
0.00269316
0.00267518
0.00264899
0.00262502
0.00260463
0.00258312
0.00255551
0.00252514
0.00250164
0.00247239
0.00243986
0.00240225
0.00236132
0.00231567
0.00226128
0.00219405
0.00211731
0.00202168
0.00190956
0.00177793
0.00282531
0.0028224
0.00281514
0.00280561
0.0027942
0.00277647
0.00275931
0.00274252
0.00272136
0.00269662
0.00267738
0.00265751
0.00262857
0.00260152
0.0025779
0.00255232
0.00252039
0.00248469
0.00245548
0.0024202
0.00237993
0.00233481
0.00228448
0.00222974
0.00216547
0.0020878
0.00200111
0.00189627
0.00177504
0.00163678
0.00282267
0.00281945
0.00281158
0.00280131
0.00278882
0.00277004
0.00275147
0.00273346
0.00271059
0.00268419
0.00266293
0.00264081
0.00260942
0.00257899
0.00255248
0.00252296
0.00248681
0.00244649
0.00241149
0.00237117
0.00232375
0.00227168
0.0022138
0.00215064
0.0020787
0.00199292
0.00189791
0.00178668
0.00165895
0.00151593
0.00282381
0.00281998
0.00281113
0.0027996
0.00278539
0.00276494
0.00274449
0.00272505
0.00270034
0.00267239
0.00264912
0.00262486
0.00259091
0.00255741
0.00252802
0.00249499
0.00245483
0.00241028
0.00237007
0.00232504
0.00227154
0.00221332
0.00214895
0.00207904
0.0020007
0.00190857
0.00180717
0.00169124
0.00155907
0.00141276
0.00282956
0.00282511
0.0028151
0.00280201
0.00278578
0.00276344
0.002741
0.00271974
0.00269307
0.00266333
0.00263807
0.0026113
0.0025747
0.00253813
0.00250598
0.00246968
0.00242553
0.00237718
0.00233213
0.00228274
0.0022241
0.00216023
0.00209072
0.00201514
0.00193159
0.00183496
0.00172863
0.00160949
0.00147468
0.00132642
0.00283973
0.00283373
0.00282132
0.00280527
0.00278581
0.00276075
0.00273601
0.00271289
0.00268447
0.00265323
0.00262621
0.00259707
0.00255815
0.00251928
0.00248493
0.00244579
0.00239803
0.00234641
0.0022973
0.00224398
0.00218094
0.00211224
0.00203834
0.00195825
0.0018705
0.00177055
0.00166077
0.00153948
0.00140341
0.00125408
0.00285899
0.0028514
0.00283601
0.00281602
0.0027924
0.00276423
0.00273701
0.00271188
0.00268171
0.00264906
0.00261998
0.00258801
0.00254665
0.00250548
0.00246852
0.00242611
0.00237468
0.0023199
0.00226713
0.00221003
0.00214313
0.00207017
0.00199265
0.00190902
0.00181795
0.00171589
0.00160406
0.00148161
0.00134543
0.00119627
0.00287974
0.00286786
0.00284675
0.00282113
0.00279321
0.00276254
0.0027337
0.00270712
0.00267559
0.00264151
0.00261034
0.00257566
0.00253249
0.00248977
0.00245055
0.00240522
0.00235116
0.00229499
0.00223958
0.00217881
0.00210829
0.00203163
0.00195101
0.0018648
0.00177154
0.00166855
0.00155623
0.00143379
0.00129837
0.00114963
0.00293315
0.00291078
0.00287588
0.0028388
0.00280388
0.00276989
0.00273921
0.00271066
0.00267728
0.00264141
0.00260753
0.00257004
0.00252575
0.0024823
0.0024408
0.00239237
0.00233588
0.0022778
0.00221943
0.00215488
0.00208109
0.00200138
0.00191779
0.00182924
0.00173432
0.00163113
0.00151919
0.00139744
0.00126369
0.00111698
0.00296205
0.00292745
0.00288211
0.00283996
0.00280311
0.00276921
0.00273811
0.00270813
0.00267311
0.00263587
0.00260017
0.00256111
0.00251661
0.00247169
0.00242647
0.00237511
0.00231823
0.0022601
0.00219854
0.00212895
0.00205102
0.00196795
0.00188252
0.00179335
0.00169892
0.00159814
0.00148896
0.00136961
0.00123827
0.00109321
0.0031417
0.00300183
0.00290429
0.00285069
0.00281545
0.00278165
0.00274765
0.00271354
0.00267605
0.00263788
0.00260048
0.00256036
0.00251662
0.00247147
0.00242368
0.0023705
0.00231327
0.00225428
0.002191
0.0021205
0.00204249
0.00195856
0.00187073
0.00177979
0.00168432
0.00158373
0.00147528
0.00135742
0.00122846
0.00108687
0.00416879
0.00387755
0.00353724
0.00292059
0.00237357
0.00163736
0.000909484
-6.025e-05
-0.00140946
-0.00282928
0.00393251
0.00357023
0.00314267
0.00248747
0.00185589
0.00111915
0.000349187
-0.000588032
-0.00173023
-0.0030316
0.00353153
0.00315907
0.00271907
0.00223176
0.00163786
0.00105881
0.000239174
-0.000553648
-0.00172883
-0.00260786
0.00315798
0.00280655
0.00242955
0.00189872
0.00133292
0.000684594
-4.48245e-05
-0.000816173
-0.00172784
-0.00260945
0.00280774
0.00249393
0.00207895
0.00163195
0.00110508
0.000563212
-0.000122206
-0.000851789
-0.00166341
-0.00241972
0.00250597
0.00219757
0.00184041
0.00138922
0.000908783
0.00035716
-0.000267798
-0.000951972
-0.00163104
-0.00230667
0.00223607
0.0019577
0.00159578
0.00118253
0.000734403
0.000240152
-0.000326228
-0.00094778
-0.00155058
-0.00215337
0.00200453
0.00173659
0.00140432
0.00101269
0.000596465
0.000127402
-0.000391952
-0.000963825
-0.00149659
-0.00202904
0.00180164
0.00155297
0.0012336
0.000867719
0.000478824
4.7856e-05
-0.000427549
-0.000939253
-0.00141968
-0.00189436
0.00162941
0.00139258
0.00109326
0.00075008
0.000387098
-1.53712e-05
-0.000452402
-0.000916328
-0.0013515
-0.00177674
0.00148144
0.00125688
0.000973974
0.000652768
0.000312172
-6.09559e-05
-0.000463364
-0.000881313
-0.00127799
-0.00166291
0.00135705
0.00114202
0.000876479
0.000574643
0.000254559
-9.32202e-05
-0.000463879
-0.000844848
-0.00120858
-0.00156068
0.00125129
0.00104524
0.00079473
0.000511584
0.000209959
-0.000114883
-0.000457443
-0.000805908
-0.00114176
-0.00146635
0.00116459
0.000966026
0.000729629
0.000462996
0.000177944
-0.000126764
-0.000444713
-0.000766928
-0.00107933
-0.00138178
0.0010915
0.000899527
0.000675468
0.000424107
0.000154508
-0.000132225
-0.000429339
-0.000729587
-0.00102246
-0.00130624
0.00103499
0.000848821
0.000635244
0.000397033
0.000141014
-0.000130399
-0.000410558
-0.000693605
-0.000970846
-0.00123991
0.000987989
0.000806155
0.000601752
0.000375376
0.000132006
-0.000125621
-0.000391634
-0.000660802
-0.000925511
-0.00118281
0.000957489
0.00077979
0.000582178
0.000364684
0.000131144
-0.000115979
-0.000371477
-0.000630762
-0.000886704
-0.00113537
0.00093412
0.000759164
0.000567373
0.00035812
0.000133639
-0.000104437
-0.00035094
-0.000602119
-0.000852096
-0.00109478
0.000931292
0.000758503
0.000568633
0.000361927
0.000140559
-9.39458e-05
-0.000336793
-0.000584952
-0.000832431
-0.00107552
-0.00565254
-0.00583527
-0.00591889
-0.00626868
-0.00774998
-0.0101584
-0.0126507
-0.0138228
-0.013381
-0.0114457
-0.00858071
-0.00540878
-0.00242658
-8.38697e-05
0.00155786
0.0024772
0.00283184
0.00284209
0.00265076
0.00237303
0.00207437
0.00178886
0.00153233
0.00130872
0.00111508
0.000947205
0.000802118
0.0006769
0.000569002
0.000476662
0.00039776
0.000330422
0.000272547
0.000222463
0.000178449
0.000139333
0.000103971
7.15618e-05
4.15623e-05
1.32781e-05
-0.00576491
-0.00596597
-0.00596646
-0.00652554
-0.00842314
-0.0110818
-0.0136534
-0.014823
-0.0142272
-0.0121781
-0.00917123
-0.00591329
-0.00283009
-0.000384091
0.00131758
0.00228006
0.0026843
0.00272827
0.00256398
0.00230706
0.00202345
0.00174795
0.00149841
0.00128119
0.00109309
0.000929796
0.000788451
0.000666454
0.00056145
0.00047164
0.000394803
0.000328975
0.000272156
0.000222681
0.000179031
0.000140022
0.000104687
7.21861e-05
4.20352e-05
1.35563e-05
-0.00549292
-0.00574572
-0.00621606
-0.00736067
-0.00960131
-0.0123671
-0.0151494
-0.0163678
-0.0156473
-0.0133727
-0.0101999
-0.00679186
-0.00356784
-0.00097814
0.00082722
0.00187442
0.00235362
0.00245826
0.00234498
0.00213291
0.00188778
0.00164311
0.00141787
0.00121953
0.00104744
0.00089881
0.000768943
0.000656054
0.000556606
0.000470401
0.000395563
0.000330677
0.000274168
0.000224643
0.000180823
0.000141635
0.000106103
7.33771e-05
4.28965e-05
1.40239e-05
-0.00527994
-0.00541557
-0.00577603
-0.00769802
-0.0105228
-0.0136254
-0.0165378
-0.0178171
-0.0169481
-0.0145017
-0.0111848
-0.00768571
-0.00435813
-0.00166447
0.000225501
0.00134496
0.00190488
0.00209266
0.00204781
0.00189225
0.00169835
0.00149801
0.00130844
0.00113962
0.000990158
0.000856153
0.000736664
0.000630884
0.000538856
0.000457789
0.000386731
0.000324564
0.000270129
0.000222083
0.000179375
0.000140966
0.000105967
7.36149e-05
4.32606e-05
1.42841e-05
-0.00503581
-0.00541531
-0.00577783
-0.00806022
-0.0110052
-0.014205
-0.0172236
-0.0185122
-0.0176617
-0.0152692
-0.0120209
-0.00847001
-0.00503951
-0.0022871
-0.000348722
0.000789384
0.00139153
0.00166069
0.00170593
0.0016241
0.00148651
0.00132996
0.00117615
0.00103636
0.000911511
0.00079832
0.000694831
0.000600747
0.000516384
0.000441308
0.000374821
0.000315956
0.000263754
0.000217417
0.000175862
0.000138337
0.000104031
7.22518e-05
4.23787e-05
1.3943e-05
-0.00493812
-0.00522179
-0.00533081
-0.00774161
-0.0109026
-0.0142979
-0.0173451
-0.0185894
-0.017768
-0.0155618
-0.0125219
-0.00905459
-0.00559862
-0.00279847
-0.000834032
0.000323187
0.000934924
0.00123828
0.00134741
0.00134146
0.001273
0.00116939
0.00105123
0.00093815
0.000835497
0.00073992
0.00064975
0.000565795
0.000489107
0.000419914
0.000358024
0.000302932
0.000253937
0.000210292
0.000171099
0.000135292
0.00010233
7.15372e-05
4.23087e-05
1.40497e-05
-0.00527988
-0.00562304
-0.00491454
-0.00744407
-0.0102609
-0.0133667
-0.0160627
-0.0173045
-0.016794
-0.0149592
-0.0123535
-0.00916407
-0.00585733
-0.00315817
-0.00128425
-0.00014277
0.000515228
0.000879592
0.00104512
0.00108712
0.00106657
0.00100907
0.000927829
0.000839897
0.000756205
0.000676766
0.000600025
0.000526321
0.00045729
0.000394318
0.000337671
0.000286849
0.000241169
0.000199766
0.000162149
0.000128151
9.67468e-05
6.74369e-05
3.96402e-05
1.30056e-05
-0.00506545
-0.0035368
-0.00463071
-0.00696818
-0.00939244
-0.0119629
-0.0142597
-0.0154102
-0.0151941
-0.0138274
-0.0116205
-0.00876929
-0.0057727
-0.00330643
-0.00161469
-0.000590609
6.18223e-05
0.000490159
0.000745528
0.00085867
0.000880923
0.000854203
0.000801759
0.000739149
0.000673679
0.000607429
0.000542283
0.000479725
0.000420138
0.000364356
0.000313189
0.000267137
0.00022579
0.000188774
0.000155333
0.000124104
9.44025e-05
6.61727e-05
3.92516e-05
1.3263e-05
-0.00417922
-0.00466632
-0.00543053
-0.00697531
-0.00883617
-0.0109161
-0.0127899
-0.0136429
-0.0134229
-0.0123574
-0.0104645
-0.00792763
-0.00535711
-0.00328217
-0.00180634
-0.000859095
-0.000242869
0.000173533
0.000449082
0.00061137
0.000685138
0.000693335
0.000665304
0.000623558
0.000578368
0.000531725
0.000481272
0.000428456
0.000377613
0.000330323
0.000286535
0.000246034
0.000208518
0.000173799
0.000141157
0.000111211
8.42889e-05
5.90853e-05
3.4795e-05
1.12868e-05
-0.00370231
-0.00425231
-0.00505249
-0.00648553
-0.00803462
-0.00961388
-0.0109753
-0.0115977
-0.0114173
-0.010508
-0.00889396
-0.00681077
-0.00477926
-0.00314834
-0.00195352
-0.00109051
-0.000470183
-4.46058e-05
0.000227549
0.000396959
0.00049208
0.000527846
0.000523693
0.000502749
0.000472279
0.000432594
0.000392256
0.000357315
0.000323598
0.000288476
0.000252758
0.000218665
0.00018754
0.000158661
0.00013266
0.000107958
8.33593e-05
5.91167e-05
3.55108e-05
1.19762e-05
-0.00340816
-0.00407327
-0.00485364
-0.00597481
-0.00716707
-0.00831061
-0.00924549
-0.00967111
-0.00951884
-0.00876387
-0.00746759
-0.00589156
-0.00435044
-0.00303955
-0.00201402
-0.00125115
-0.000689693
-0.000281643
3.88144e-06
0.000191022
0.000302863
0.000359298
0.000382242
0.000386703
0.00037411
0.000350222
0.000323536
0.000296376
0.000269163
0.000242756
0.000217867
0.000193326
0.000167511
0.000141283
0.000114784
8.98433e-05
6.77212e-05
4.61586e-05
2.63673e-05
8.7248e-06
-0.00310382
-0.00376725
-0.00447926
-0.00535111
-0.00625687
-0.00708228
-0.00774839
-0.00809649
-0.0079876
-0.00739407
-0.00639658
-0.00521489
-0.00402869
-0.00296805
-0.00207547
-0.00137901
-0.00087145
-0.000497074
-0.000216323
-1.3964e-05
0.000116833
0.000193245
0.000237044
0.000264028
0.000275264
0.000266488
0.000244697
0.000223887
0.000208874
0.000195156
0.000178732
0.000160409
0.000141873
0.000123823
0.000106519
8.85381e-05
6.87805e-05
4.9989e-05
3.05145e-05
1.03558e-05
-0.00286967
-0.00347423
-0.0041016
-0.00480969
-0.00552582
-0.00617615
-0.00670775
-0.00691403
-0.0068126
-0.0063772
-0.0056035
-0.00466252
-0.00372112
-0.00285876
-0.00210571
-0.00148343
-0.00100809
-0.000649998
-0.000374536
-0.000165693
-1.66696e-05
7.962e-05
0.000134236
0.000167951
0.000188619
0.000195007
0.000196363
0.000197964
0.000193609
0.000180056
0.000160578
0.000141949
0.000122991
0.000103878
8.48963e-05
6.69396e-05
5.052e-05
3.51968e-05
2.0667e-05
6.61704e-06
-0.00266115
-0.00318781
-0.00373504
-0.00432971
-0.00490728
-0.00540925
-0.00578565
-0.0059602
-0.00588019
-0.0055433
-0.0049518
-0.00420987
-0.00345101
-0.0027399
-0.00210257
-0.00155804
-0.00112193
-0.000781669
-0.000515035
-0.000314587
-0.000167858
-5.89484e-05
1.84811e-05
6.77463e-05
9.5354e-05
0.000110265
0.000114033
0.000110373
0.000106682
0.000108463
0.000112271
0.000111345
0.000105103
9.52577e-05
8.37021e-05
7.10369e-05
5.5599e-05
4.15231e-05
2.58151e-05
8.70041e-06
-0.00247295
-0.0029299
-0.00340919
-0.00391863
-0.004394
-0.00479151
-0.00509378
-0.00522955
-0.00516068
-0.00489164
-0.00443366
-0.0038469
-0.00322646
-0.0026317
-0.00208619
-0.00160983
-0.00121847
-0.000903871
-0.000647486
-0.000443324
-0.000288781
-0.000174506
-9.03243e-05
-2.77319e-05
2.29396e-05
5.49581e-05
6.49819e-05
6.76841e-05
7.1545e-05
7.63379e-05
7.87415e-05
7.59494e-05
6.98258e-05
6.13324e-05
5.12056e-05
4.06023e-05
3.18745e-05
2.13862e-05
1.21388e-05
3.99364e-06
-0.00229858
-0.00270093
-0.00312134
-0.00355578
-0.00395251
-0.00427946
-0.00451927
-0.00462719
-0.00457048
-0.00435463
-0.00399789
-0.0035354
-0.00302568
-0.00252438
-0.00206035
-0.00164383
-0.0012847
-0.00098785
-0.000746356
-0.000550223
-0.000393184
-0.000270934
-0.000180492
-0.00011496
-6.57629e-05
-2.85446e-05
-6.22928e-07
2.37101e-05
4.5209e-05
5.87333e-05
6.55511e-05
6.72863e-05
6.56765e-05
6.17933e-05
5.62764e-05
4.91748e-05
4.05526e-05
3.04543e-05
1.92118e-05
6.57476e-06
-0.00214137
-0.00249917
-0.00286703
-0.00324423
-0.00358452
-0.00385872
-0.00405712
-0.004147
-0.00410226
-0.00392739
-0.00363871
-0.00326519
-0.00285066
-0.00243317
-0.0020334
-0.00166592
-0.0013433
-0.00106992
-0.000840907
-0.00065314
-0.000501869
-0.000376742
-0.000274775
-0.000192694
-0.000129339
-8.46541e-05
-5.11679e-05
-2.754e-05
-9.75438e-06
4.18307e-06
1.44942e-05
2.09675e-05
2.39763e-05
2.41076e-05
2.19927e-05
1.85206e-05
1.44206e-05
1.00813e-05
5.6936e-06
1.80392e-06
-0.00199788
-0.00231897
-0.00264507
-0.00297376
-0.00326911
-0.00350553
-0.00366967
-0.00374484
-0.00371372
-0.00357466
-0.00334139
-0.00303875
-0.00269791
-0.00234411
-0.00199786
-0.00167608
-0.00138763
-0.00113567
-0.00091825
-0.000732241
-0.000576032
-0.000449749
-0.000348334
-0.000268083
-0.000202494
-0.000146758
-0.000100082
-6.15605e-05
-3.10792e-05
-8.08705e-06
8.31396e-06
1.92156e-05
2.58516e-05
2.91553e-05
2.98594e-05
2.8291e-05
2.48265e-05
1.94247e-05
1.26398e-05
4.4023e-06
-0.00186896
-0.00216145
-0.00245304
-0.00274344
-0.00300332
-0.00320907
-0.00335284
-0.00341929
-0.00339451
-0.00328355
-0.00309729
-0.00284851
-0.00256225
-0.0022643
-0.00196894
-0.00168598
-0.00142513
-0.00119131
-0.000986653
-0.00081256
-0.000665281
-0.000536749
-0.000425836
-0.000333686
-0.000258456
-0.000196969
-0.00014793
-0.000109824
-7.95523e-05
-5.53799e-05
-3.65743e-05
-2.25451e-05
-1.25647e-05
-5.89059e-06
-1.86736e-06
2.23886e-07
9.13402e-07
1.01335e-06
5.65041e-07
1.11698e-07
-0.00175387
-0.00202281
-0.00228718
-0.00254563
-0.00277597
-0.00295959
-0.00308565
-0.00314512
-0.00313121
-0.00304307
-0.00288903
-0.00268516
-0.0024492
-0.00219614
-0.00193823
-0.00168829
-0.00145545
-0.00124272
-0.00105017
-0.000878156
-0.000727403
-0.000597792
-0.000487414
-0.000394001
-0.000315283
-0.000247395
-0.000189204
-0.000140036
-9.9628e-05
-6.72631e-05
-4.20385e-05
-2.3009e-05
-9.12801e-06
4.7376e-07
6.60819e-06
9.85298e-06
1.08107e-05
9.61726e-06
6.92382e-06
2.46006e-06
-0.00165213
-0.00190279
-0.00214499
-0.00237813
-0.00258519
-0.00275006
-0.0028644
-0.00292032
-0.00291189
-0.00284229
-0.00271842
-0.00254963
-0.00235048
-0.00213498
-0.00191361
-0.00169482
-0.00148507
-0.00128759
-0.00110498
-0.000941358
-0.000797282
-0.000668131
-0.000551706
-0.000450223
-0.000362927
-0.000289286
-0.000227692
-0.0001777
-0.000137165
-0.000104264
-7.77718e-05
-5.68681e-05
-4.07184e-05
-2.85236e-05
-1.95592e-05
-1.32012e-05
-8.98615e-06
-5.37383e-06
-2.5731e-06
-9.94895e-07
-0.00156302
-0.00179914
-0.00202403
-0.00223669
-0.00242411
-0.0025742
-0.00267879
-0.00273155
-0.00272978
-0.00267581
-0.00257421
-0.00243398
-0.00226774
-0.00208559
-0.00189404
-0.00170017
-0.00151147
-0.00133134
-0.00116061
-0.00100119
-0.000854846
-0.000722014
-0.000603274
-0.000498742
-0.000408438
-0.000329907
-0.000262013
-0.000203551
-0.000154414
-0.000114202
-8.19592e-05
-5.65819e-05
-3.70561e-05
-2.25695e-05
-1.23583e-05
-5.26022e-06
-5.39042e-07
1.36479e-06
1.36496e-06
5.88091e-07
-0.00148599
-0.00171114
-0.00192236
-0.00211887
-0.0022911
-0.00242861
-0.0025252
-0.00257603
-0.00257905
-0.00253687
-0.0024543
-0.00233898
-0.00219988
-0.00204424
-0.00187863
-0.00170999
-0.00154218
-0.00137598
-0.00121282
-0.00105736
-0.000913113
-0.000779819
-0.00065683
-0.000545833
-0.000447697
-0.000362592
-0.000290343
-0.000230162
-0.000180798
-0.00014011
-0.000106505
-7.96613e-05
-5.84701e-05
-4.18944e-05
-2.89227e-05
-1.93077e-05
-1.24178e-05
-7.61763e-06
-4.24853e-06
-1.32944e-06
-0.00142082
-0.00163799
-0.00183878
-0.00202182
-0.00218057
-0.00230801
-0.0023981
-0.00244693
-0.00245374
-0.00242164
-0.00235474
-0.00225941
-0.00214346
-0.00201301
-0.00187203
-0.00172412
-0.00157262
-0.00141958
-0.00126665
-0.00111589
-0.000970001
-0.000831589
-0.000702596
-0.000585799
-0.000482707
-0.000392935
-0.00031512
-0.000248815
-0.00019298
-0.000147085
-0.000110221
-8.0549e-05
-5.70727e-05
-3.88842e-05
-2.52004e-05
-1.52242e-05
-8.27401e-06
-3.80388e-06
-1.23527e-06
-1.24469e-07
-0.00136742
-0.00157985
-0.00177388
-0.00194714
-0.00209495
-0.00221271
-0.00229631
-0.00234301
-0.00235252
-0.00232749
-0.00227273
-0.00219494
-0.00210016
-0.00199179
-0.00187227
-0.00174418
-0.00160872
-0.00146624
-0.00131813
-0.00116775
-0.00101952
-0.000877115
-0.000743634
-0.000621649
-0.000511741
-0.00041547
-0.000332984
-0.000263737
-0.000206378
-0.000159414
-0.000121253
-9.06124e-05
-6.62766e-05
-4.72291e-05
-3.25376e-05
-2.14808e-05
-1.34082e-05
-7.68281e-06
-3.81554e-06
-1.11802e-06
-0.00132307
-0.00153285
-0.00172256
-0.00188917
-0.00203009
-0.00214097
-0.00221869
-0.00226273
-0.00227348
-0.00225357
-0.0022088
-0.00214496
-0.00206687
-0.00197829
-0.0018807
-0.00177214
-0.00165061
-0.00151624
-0.00137132
-0.00121972
-0.00106636
-0.000916451
-0.000775329
-0.00064559
-0.000530106
-0.000429517
-0.000343558
-0.000271204
-0.00021093
-0.000161448
-0.000121302
-8.91594e-05
-6.37237e-05
-4.39627e-05
-2.89139e-05
-1.77771e-05
-9.87304e-06
-4.55786e-06
-1.43264e-06
-5.53628e-09
-0.00130624
-0.00151536
-0.00170126
-0.00186311
-0.00199935
-0.00210635
-0.00218125
-0.00222362
-0.00223446
-0.00221678
-0.00217593
-0.00211765
-0.00204696
-0.00196678
-0.00187702
-0.00177538
-0.00165995
-0.00153038
-0.0013882
-0.0012371
-0.00108258
-0.000931444
-0.000788367
-0.000656817
-0.00053912
-0.000436425
-0.000348557
-0.000274673
-0.000213448
-0.000163518
-0.000123172
-9.10048e-05
-6.55498e-05
-4.5789e-05
-3.06277e-05
-1.9355e-05
-1.12094e-05
-5.62057e-06
-2.19093e-06
-2.49898e-07
)
;

boundaryField
{
    inlet
    {
        type            zeroGradient;
    }
    outlet
    {
        type            fixedValue;
        value           uniform 0;
    }
    lowerWall
    {
        type            zeroGradient;
    }
    upperWall
    {
        type            zeroGradient;
    }
    defaultFaces
    {
        type            empty;
    }
}


// ************************************************************************* //
