/*--------------------------------*- C++ -*----------------------------------*\
| =========                 |                                                 |
| \\      /  F ield         | OpenFOAM: The Open Source CFD Toolbox           |
|  \\    /   O peration     | Version:  2112                                  |
|   \\  /    A nd           | Website:  www.openfoam.com                      |
|    \\/     M anipulation  |                                                 |
\*---------------------------------------------------------------------------*/
FoamFile
{
    version     2.0;
    format      ascii;
    arch        "LSB;label=32;scalar=64";
    class       surfaceScalarField;
    location    "0.28";
    object      phi;
}
// * * * * * * * * * * * * * * * * * * * * * * * * * * * * * * * * * * * * * //

dimensions      [0 3 -1 0 0 0 0];

oriented        oriented;

internalField   nonuniform List<scalar> 
3653
(
9.92516e-07
7.4836e-09
9.79285e-07
1.32315e-08
9.63861e-07
1.54237e-08
9.48668e-07
1.51937e-08
9.31707e-07
1.69609e-08
9.15681e-07
1.60253e-08
8.97338e-07
1.83432e-08
8.80389e-07
1.69486e-08
8.61091e-07
1.92985e-08
8.43578e-07
1.75127e-08
8.24168e-07
1.94101e-08
8.06453e-07
1.77153e-08
7.86396e-07
2.00571e-08
7.67243e-07
1.91526e-08
7.45679e-07
2.15648e-08
7.26953e-07
1.87251e-08
7.04868e-07
2.20855e-08
6.84354e-07
2.05135e-08
6.6021e-07
2.41444e-08
6.35704e-07
2.45057e-08
6.11421e-07
2.4283e-08
5.8439e-07
2.7031e-08
5.61783e-07
2.26071e-08
5.32515e-07
2.92683e-08
5.08988e-07
2.35269e-08
4.71726e-07
3.72616e-08
4.3737e-07
3.43568e-08
3.86647e-07
5.07225e-08
3.24496e-07
6.21507e-08
8.70755e-08
2.37421e-07
1.00299e-06
4.49263e-09
1.00647e-06
9.75384e-09
1.00879e-06
1.30975e-08
1.01043e-06
1.35565e-08
1.01107e-06
1.6319e-08
1.01196e-06
1.51357e-08
1.01127e-06
1.90402e-08
1.01163e-06
1.65829e-08
1.00959e-06
2.13375e-08
1.0087e-06
1.84085e-08
1.00544e-06
2.26633e-08
1.00299e-06
2.01688e-08
9.99509e-07
2.35393e-08
9.96018e-07
2.26431e-08
9.9007e-07
2.75124e-08
9.86185e-07
2.26104e-08
9.76003e-07
3.22676e-08
9.73197e-07
2.33194e-08
9.60627e-07
3.67142e-08
9.55532e-07
2.96012e-08
9.4164e-07
3.81744e-08
9.31108e-07
3.75634e-08
9.12352e-07
4.13631e-08
9.00397e-07
4.1223e-08
8.70411e-07
5.35133e-08
8.57509e-07
5.0163e-08
8.16573e-07
7.52928e-08
7.87987e-07
7.93085e-08
7.35365e-07
1.14773e-07
1.28828e-07
6.93613e-07
1.00179e-06
2.70099e-09
1.00486e-06
6.68129e-09
1.0077e-06
1.02642e-08
1.00997e-06
1.12794e-08
1.01193e-06
1.43652e-08
1.01393e-06
1.31358e-08
1.01531e-06
1.76617e-08
1.01755e-06
1.43362e-08
1.01811e-06
2.07805e-08
1.02048e-06
1.60353e-08
1.01992e-06
2.32287e-08
1.02154e-06
1.85422e-08
1.02063e-06
2.44514e-08
1.02151e-06
2.17627e-08
1.02097e-06
2.80526e-08
1.01978e-06
2.38009e-08
1.01856e-06
3.34894e-08
1.01577e-06
2.61091e-08
1.01374e-06
3.87411e-08
1.00915e-06
3.41949e-08
1.00654e-06
4.07887e-08
9.98547e-07
4.55526e-08
9.92145e-07
4.77656e-08
9.82251e-07
5.11163e-08
9.64094e-07
7.16711e-08
9.56772e-07
5.74843e-08
9.29039e-07
1.03026e-07
9.12575e-07
9.5773e-08
8.92038e-07
1.3531e-07
1.51287e-07
8.69578e-07
1.00081e-06
1.88714e-09
1.00257e-06
4.92868e-09
1.00458e-06
8.24795e-09
1.00649e-06
9.375e-09
1.00841e-06
1.24432e-08
1.00997e-06
1.15768e-08
1.01178e-06
1.58519e-08
1.01316e-06
1.29495e-08
1.01497e-06
1.89773e-08
1.01629e-06
1.47154e-08
1.01752e-06
2.19941e-08
1.01856e-06
1.75074e-08
1.01891e-06
2.41024e-08
1.02029e-06
2.03835e-08
1.02016e-06
2.81738e-08
1.02074e-06
2.32228e-08
1.01971e-06
3.45259e-08
1.01911e-06
2.67036e-08
1.01731e-06
4.05376e-08
1.01682e-06
3.4687e-08
1.01225e-06
4.53621e-08
1.01241e-06
4.53957e-08
1.00308e-06
5.70925e-08
9.99858e-07
5.43375e-08
9.90018e-07
8.15114e-08
9.77641e-07
6.98611e-08
9.70745e-07
1.09922e-07
9.57547e-07
1.08972e-07
9.44567e-07
1.4829e-07
1.58238e-07
9.37616e-07
1.00043e-06
1.45494e-09
1.00153e-06
3.83189e-09
1.0032e-06
6.57896e-09
1.00476e-06
7.81187e-09
1.00667e-06
1.05356e-08
1.00799e-06
1.02562e-08
1.00998e-06
1.38644e-08
1.01095e-06
1.19765e-08
1.01317e-06
1.67554e-08
1.01377e-06
1.4121e-08
1.01615e-06
1.96054e-08
1.01607e-06
1.75943e-08
1.01829e-06
2.18772e-08
1.01771e-06
2.09632e-08
1.01978e-06
2.61114e-08
1.01903e-06
2.39682e-08
1.01987e-06
3.3688e-08
1.01918e-06
2.73868e-08
1.01818e-06
4.15377e-08
1.01783e-06
3.504e-08
1.01518e-06
4.80181e-08
1.01392e-06
4.66559e-08
1.00966e-06
6.1346e-08
1.00619e-06
5.78083e-08
1.00067e-06
8.70278e-08
9.94522e-07
7.60135e-08
9.89365e-07
1.15078e-07
9.83063e-07
1.15274e-07
9.80778e-07
1.50575e-07
1.61711e-07
9.77305e-07
1.00036e-06
1.09724e-09
1.00113e-06
3.0636e-09
1.00244e-06
5.26077e-09
1.00371e-06
6.54502e-09
1.00548e-06
8.76786e-09
1.00669e-06
9.0454e-09
1.00866e-06
1.18982e-08
1.00964e-06
1.09971e-08
1.01172e-06
1.46683e-08
1.0126e-06
1.32434e-08
1.0146e-06
1.76094e-08
1.01543e-06
1.67645e-08
1.01688e-06
2.04236e-08
1.0176e-06
2.02396e-08
1.01896e-06
2.4754e-08
1.01891e-06
2.40234e-08
1.02046e-06
3.21337e-08
1.01936e-06
2.84881e-08
1.02027e-06
4.06303e-08
1.01928e-06
3.6025e-08
1.01831e-06
4.89843e-08
1.01734e-06
4.76273e-08
1.01587e-06
6.28188e-08
1.01219e-06
6.14884e-08
1.01249e-06
8.67234e-08
1.00682e-06
8.16915e-08
1.00721e-06
1.14683e-07
1.00503e-06
1.17457e-07
1.00649e-06
1.49113e-07
1.60319e-07
1.00788e-06
1.00027e-06
8.29397e-10
1.00084e-06
2.49511e-09
1.00193e-06
4.16256e-09
1.00301e-06
5.46965e-09
1.00467e-06
7.10477e-09
1.00581e-06
7.90494e-09
1.00784e-06
9.87452e-09
1.00874e-06
1.00974e-08
1.0111e-06
1.23071e-08
1.01169e-06
1.26478e-08
1.01429e-06
1.50155e-08
1.01472e-06
1.63357e-08
1.01704e-06
1.81036e-08
1.01745e-06
1.98236e-08
1.01926e-06
2.29484e-08
1.01989e-06
2.33923e-08
1.02118e-06
3.08428e-08
1.02148e-06
2.81853e-08
1.02236e-06
3.97547e-08
1.02221e-06
3.61773e-08
1.02257e-06
4.86228e-08
1.02204e-06
4.81558e-08
1.02214e-06
6.27157e-08
1.021e-06
6.26353e-08
1.02222e-06
8.54996e-08
1.02032e-06
8.3589e-08
1.02324e-06
1.11761e-07
1.02418e-06
1.16522e-07
1.02897e-06
1.44326e-07
1.54503e-07
1.03478e-06
1.00023e-06
6.03898e-10
1.00071e-06
2.0067e-09
1.00169e-06
3.18761e-09
1.0027e-06
4.45621e-09
1.00423e-06
5.57244e-09
1.00546e-06
6.68229e-09
1.00735e-06
7.98511e-09
1.00853e-06
8.91281e-09
1.01064e-06
1.01954e-08
1.01179e-06
1.15027e-08
1.01398e-06
1.28188e-08
1.01517e-06
1.51495e-08
1.01718e-06
1.60946e-08
1.01828e-06
1.87265e-08
1.0203e-06
2.09214e-08
1.02099e-06
2.27033e-08
1.02337e-06
2.84698e-08
1.02346e-06
2.80878e-08
1.02568e-06
3.75416e-08
1.02575e-06
3.61018e-08
1.0274e-06
4.69757e-08
1.02754e-06
4.80138e-08
1.02974e-06
6.05131e-08
1.02923e-06
6.31504e-08
1.03313e-06
8.15978e-08
1.03314e-06
8.35792e-08
1.03829e-06
1.06609e-07
1.04154e-06
1.1327e-07
1.04929e-06
1.36583e-07
1.47705e-07
1.05609e-06
1.0002e-06
4.01261e-10
1.00067e-06
1.54053e-09
1.00157e-06
2.29042e-09
1.00256e-06
3.46165e-09
1.00404e-06
4.09354e-09
1.00532e-06
5.4053e-09
1.00721e-06
6.0928e-09
1.00851e-06
7.6081e-09
1.0107e-06
8.01305e-09
1.012e-06
1.01946e-08
1.01431e-06
1.05089e-08
1.01579e-06
1.36741e-08
1.01788e-06
1.40003e-08
1.01955e-06
1.7059e-08
1.02148e-06
1.89974e-08
1.02315e-06
2.10263e-08
1.02534e-06
2.6282e-08
1.02651e-06
2.69166e-08
1.02909e-06
3.49646e-08
1.02987e-06
3.53191e-08
1.03255e-06
4.42943e-08
1.03366e-06
4.69021e-08
1.03667e-06
5.75037e-08
1.03826e-06
6.15652e-08
1.04287e-06
7.69852e-08
1.04521e-06
8.12405e-08
1.0518e-06
1.00015e-07
1.05729e-06
1.0778e-07
1.06648e-06
1.27397e-07
1.38155e-07
1.07603e-06
1.00019e-06
2.12178e-10
1.00067e-06
1.06118e-09
1.00154e-06
1.42282e-09
1.00258e-06
2.41906e-09
1.00402e-06
2.65573e-09
1.00543e-06
3.9888e-09
1.00728e-06
4.24719e-09
1.00885e-06
6.03983e-09
1.01095e-06
5.9111e-09
1.01265e-06
8.49823e-09
1.0149e-06
8.25455e-09
1.01678e-06
1.17891e-08
1.01903e-06
1.1752e-08
1.02098e-06
1.51144e-08
1.0234e-06
1.65763e-08
1.02521e-06
1.92191e-08
1.02811e-06
2.3381e-08
1.02967e-06
2.53498e-08
1.03289e-06
3.17505e-08
1.03447e-06
3.37352e-08
1.03787e-06
4.08972e-08
1.03986e-06
4.49151e-08
1.04402e-06
5.33438e-08
1.04667e-06
5.89068e-08
1.05241e-06
7.12493e-08
1.05652e-06
7.7128e-08
1.06425e-06
9.2286e-08
1.07113e-06
1.00897e-07
1.08176e-06
1.16774e-07
1.27658e-07
1.09225e-06
1.00019e-06
2.45438e-11
1.00071e-06
5.42535e-10
1.00159e-06
5.3938e-10
1.00271e-06
1.29455e-09
1.00418e-06
1.19325e-09
1.00573e-06
2.43385e-09
1.00761e-06
2.36698e-09
1.00939e-06
4.25859e-09
1.01153e-06
3.77875e-09
1.01352e-06
6.50275e-09
1.01582e-06
5.95886e-09
1.01811e-06
9.4985e-09
1.02042e-06
9.4382e-09
1.02288e-06
1.26508e-08
1.0254e-06
1.40647e-08
1.02785e-06
1.67663e-08
1.03095e-06
2.02818e-08
1.03325e-06
2.30506e-08
1.03686e-06
2.81378e-08
1.03926e-06
3.13313e-08
1.04315e-06
3.70082e-08
1.04629e-06
4.17826e-08
1.05082e-06
4.88127e-08
1.05497e-06
5.47515e-08
1.06126e-06
6.49625e-08
1.06681e-06
7.15774e-08
1.07522e-06
8.38719e-08
1.08356e-06
9.25555e-08
1.09473e-06
1.05611e-07
1.1585e-07
1.10654e-06
1.00019e-06
-1.68261e-10
1.00078e-06
-4.51561e-11
1.00171e-06
-3.90553e-10
1.00296e-06
4.67771e-11
1.00448e-06
-3.33263e-10
1.0062e-06
7.14725e-10
1.00815e-06
4.24207e-10
1.01015e-06
2.25585e-09
1.01234e-06
1.58343e-09
1.01461e-06
4.23544e-09
1.01704e-06
3.53327e-09
1.01961e-06
6.92587e-09
1.0222e-06
6.85336e-09
1.02489e-06
9.9588e-09
1.0278e-06
1.11479e-08
1.03059e-06
1.39795e-08
1.03409e-06
1.67871e-08
1.03701e-06
2.01284e-08
1.04096e-06
2.41839e-08
1.04418e-06
2.81109e-08
1.04854e-06
3.26547e-08
1.05247e-06
3.78452e-08
1.05767e-06
4.36165e-08
1.06275e-06
4.96667e-08
1.0696e-06
5.81182e-08
1.07624e-06
6.49319e-08
1.08525e-06
7.48657e-08
1.0944e-06
8.34079e-08
1.10605e-06
9.39621e-08
1.03476e-07
1.11842e-06
1.00023e-06
-3.93442e-10
1.0009e-06
-7.24651e-10
1.00196e-06
-1.44729e-09
1.00337e-06
-1.3607e-09
1.00503e-06
-1.99486e-09
1.00694e-06
-1.19153e-09
1.00898e-06
-1.61966e-09
1.01119e-06
4.34607e-11
1.01347e-06
-6.88605e-10
1.01602e-06
1.68422e-09
1.01855e-06
1.00077e-09
1.02146e-06
4.01308e-09
1.02421e-06
4.10346e-09
1.02726e-06
6.90686e-09
1.03041e-06
8.00402e-09
1.03365e-06
1.07326e-08
1.03743e-06
1.30133e-08
1.04094e-06
1.66127e-08
1.04522e-06
1.99088e-08
1.0492e-06
2.41298e-08
1.05389e-06
2.79684e-08
1.05868e-06
3.30523e-08
1.06423e-06
3.80614e-08
1.07013e-06
4.37733e-08
1.07737e-06
5.08792e-08
1.08479e-06
5.75131e-08
1.09403e-06
6.56196e-08
1.1039e-06
7.35373e-08
1.11565e-06
8.22152e-08
9.06124e-08
1.12851e-06
1.00025e-06
-6.44603e-10
1.00105e-06
-1.52226e-09
1.00225e-06
-2.64929e-09
1.00387e-06
-2.98105e-09
1.00568e-06
-3.80665e-09
1.00779e-06
-3.29405e-09
1.00995e-06
-3.78466e-09
1.01242e-06
-2.42385e-09
1.01483e-06
-3.10032e-09
1.01762e-06
-1.10268e-09
1.02038e-06
-1.76293e-09
1.02353e-06
8.67991e-10
1.02656e-06
1.07233e-09
1.02985e-06
3.61618e-09
1.03333e-06
4.52152e-09
1.03696e-06
7.09956e-09
1.04104e-06
8.93759e-09
1.04508e-06
1.25685e-08
1.04968e-06
1.53065e-08
1.05428e-06
1.95372e-08
1.05939e-06
2.28519e-08
1.06475e-06
2.76918e-08
1.07078e-06
3.20369e-08
1.0772e-06
3.73498e-08
1.08476e-06
4.33256e-08
1.09269e-06
4.95797e-08
1.10213e-06
5.61788e-08
1.11231e-06
6.33542e-08
1.12409e-06
7.04356e-08
7.77555e-08
1.13695e-06
1.00037e-06
-1.01776e-09
1.00142e-06
-2.5654e-09
1.00291e-06
-4.143e-09
1.00481e-06
-4.87884e-09
1.00685e-06
-5.85161e-09
1.00915e-06
-5.59624e-09
1.0115e-06
-6.13176e-09
1.01413e-06
-5.05351e-09
1.01673e-06
-5.7029e-09
1.01973e-06
-4.09614e-09
1.0227e-06
-4.73414e-09
1.02604e-06
-2.47775e-09
1.02927e-06
-2.15216e-09
1.03284e-06
4.9012e-11
1.03658e-06
7.79911e-10
1.04059e-06
3.0919e-09
1.04487e-06
4.65135e-09
1.04937e-06
8.07126e-09
1.05429e-06
1.03873e-08
1.0595e-06
1.43269e-08
1.06502e-06
1.73328e-08
1.07094e-06
2.17658e-08
1.07729e-06
2.56948e-08
1.08406e-06
3.05793e-08
1.0917e-06
3.56835e-08
1.09985e-06
4.14259e-08
1.10917e-06
4.68566e-08
1.11944e-06
5.30852e-08
1.13101e-06
5.88679e-08
6.48796e-08
1.14389e-06
1.00046e-06
-1.47355e-09
1.00185e-06
-3.96237e-09
1.00376e-06
-6.05118e-09
1.00602e-06
-7.13985e-09
1.00832e-06
-8.14746e-09
1.01084e-06
-8.11515e-09
1.01335e-06
-8.64251e-09
1.01621e-06
-7.9131e-09
1.01902e-06
-8.51168e-09
1.02229e-06
-7.36604e-09
1.02545e-06
-7.90205e-09
1.02898e-06
-6.00357e-09
1.03241e-06
-5.58541e-09
1.03632e-06
-3.85574e-09
1.04041e-06
-3.31318e-09
1.04476e-06
-1.2573e-09
1.04932e-06
9.25844e-11
1.05415e-06
3.23831e-09
1.05938e-06
5.15879e-09
1.06503e-06
8.67965e-09
1.07099e-06
1.13674e-08
1.07739e-06
1.53723e-08
1.08412e-06
1.89607e-08
1.09119e-06
2.35097e-08
1.09888e-06
2.79897e-08
1.10708e-06
3.32332e-08
1.1162e-06
3.77298e-08
1.12627e-06
4.30168e-08
1.13752e-06
4.76236e-08
5.25437e-08
1.14985e-06
1.00088e-06
-2.35736e-09
1.0029e-06
-5.9741e-09
1.00527e-06
-8.4268e-09
1.00786e-06
-9.724e-09
1.01038e-06
-1.06743e-08
1.01309e-06
-1.08242e-08
1.01579e-06
-1.13371e-08
1.0189e-06
-1.10239e-08
1.02199e-06
-1.16031e-08
1.02548e-06
-1.08615e-08
1.02881e-06
-1.12277e-08
1.03242e-06
-9.61374e-09
1.03611e-06
-9.27714e-09
1.04035e-06
-8.09252e-09
1.04476e-06
-7.7271e-09
1.0493e-06
-5.79957e-09
1.05384e-06
-4.44243e-09
1.05894e-06
-1.8586e-09
1.0645e-06
-4.01802e-10
1.07076e-06
2.41144e-09
1.07736e-06
4.77464e-09
1.08433e-06
8.39909e-09
1.09133e-06
1.19634e-08
1.09841e-06
1.64275e-08
1.10573e-06
2.06649e-08
1.11349e-06
2.54751e-08
1.12199e-06
2.92291e-08
1.1315e-06
3.35116e-08
1.14217e-06
3.69513e-08
4.03995e-08
1.15432e-06
1.00185e-06
-4.21011e-09
1.00526e-06
-9.38448e-09
1.0085e-06
-1.16617e-08
1.01145e-06
-1.26762e-08
1.01422e-06
-1.34491e-08
1.01718e-06
-1.37818e-08
1.02011e-06
-1.42634e-08
1.02341e-06
-1.4325e-08
1.02657e-06
-1.47604e-08
1.03006e-06
-1.43553e-08
1.03321e-06
-1.43803e-08
1.03664e-06
-1.30414e-08
1.04014e-06
-1.27769e-08
1.04434e-06
-1.22917e-08
1.0486e-06
-1.19829e-08
1.05305e-06
-1.02558e-08
1.05739e-06
-8.77942e-09
1.06233e-06
-6.79499e-09
1.06772e-06
-5.79934e-09
1.07389e-06
-3.75713e-09
1.0806e-06
-1.93692e-09
1.08789e-06
1.11701e-09
1.09521e-06
4.63927e-09
1.10259e-06
9.04645e-09
1.11003e-06
1.32275e-08
1.11784e-06
1.76652e-08
1.12621e-06
2.08527e-08
1.13549e-06
2.42318e-08
1.14583e-06
2.662e-08
2.89397e-08
1.15729e-06
1.00304e-06
-7.25253e-09
1.00684e-06
-1.31824e-08
1.00971e-06
-1.45358e-08
1.01187e-06
-1.48308e-08
1.01371e-06
-1.52858e-08
1.01539e-06
-1.54622e-08
1.01684e-06
-1.57172e-08
1.0183e-06
-1.57809e-08
1.01931e-06
-1.57789e-08
1.02028e-06
-1.5318e-08
1.02075e-06
-1.48543e-08
1.02165e-06
-1.39442e-08
1.02272e-06
-1.38391e-08
1.02415e-06
-1.37267e-08
1.0252e-06
-1.30313e-08
1.02637e-06
-1.1427e-08
1.02779e-06
-1.02036e-08
1.03033e-06
-9.32891e-09
1.03348e-06
-8.9504e-09
1.03756e-06
-7.83427e-09
1.04209e-06
-6.46509e-09
1.04723e-06
-4.02616e-09
1.05296e-06
-1.08894e-09
1.0597e-06
2.30304e-09
1.06752e-06
5.40951e-09
1.0768e-06
8.38379e-09
1.0872e-06
1.04498e-08
1.09904e-06
1.23983e-08
1.1121e-06
1.35582e-08
1.45249e-08
1.12651e-06
9.92747e-07
9.79565e-07
9.65029e-07
9.50198e-07
9.34913e-07
9.1945e-07
9.03733e-07
8.87952e-07
8.72173e-07
8.56855e-07
8.42001e-07
8.28057e-07
8.14218e-07
8.00491e-07
7.8746e-07
7.76033e-07
7.65829e-07
7.565e-07
7.4755e-07
7.39716e-07
7.33251e-07
7.29224e-07
7.28135e-07
7.30438e-07
7.35848e-07
7.44232e-07
7.54682e-07
7.6708e-07
7.80638e-07
7.95163e-07
3.45028e-07
-1.07607e-07
4.52312e-07
-1.07284e-07
5.142e-07
-6.18884e-08
5.67605e-07
-5.34048e-08
6.1182e-07
-4.42154e-08
6.49615e-07
-3.7795e-08
7.03982e-07
-5.43663e-08
7.33627e-07
-2.96453e-08
8.11216e-07
-7.75888e-08
-1.22125e-07
9.3334e-07
7.36784e-07
-1.50778e-07
7.86207e-07
-1.56707e-07
8.23681e-07
-9.93623e-08
8.45828e-07
-7.55519e-08
8.7618e-07
-7.45676e-08
9.11816e-07
-7.34307e-08
9.57177e-07
-9.97273e-08
9.77095e-07
-4.95639e-08
1.00463e-06
-1.05126e-07
-1.67101e-07
1.04961e-06
8.73354e-07
-1.54553e-07
8.84964e-07
-1.68317e-07
9.01089e-07
-1.15487e-07
9.14388e-07
-8.88508e-08
9.24719e-07
-8.48992e-08
9.54463e-07
-1.03175e-07
9.65822e-07
-1.11086e-07
1.03658e-06
-1.20322e-07
1.04412e-06
-1.1266e-07
-1.71814e-07
1.04883e-06
9.42682e-07
-1.59619e-07
9.29949e-07
-1.55584e-07
9.36979e-07
-1.22517e-07
9.61435e-07
-1.13306e-07
9.82338e-07
-1.05802e-07
9.93355e-07
-1.14192e-07
9.93125e-07
-1.10856e-07
1.0192e-06
-1.46393e-07
1.04727e-06
-1.40735e-07
-1.77824e-07
1.05328e-06
9.73071e-07
-1.55385e-07
9.76313e-07
-1.58826e-07
9.77617e-07
-1.23822e-07
9.87375e-07
-1.23064e-07
9.91116e-07
-1.09543e-07
1.00318e-06
-1.26257e-07
1.0139e-06
-1.21573e-07
1.03311e-06
-1.65606e-07
1.04045e-06
-1.48075e-07
-1.93805e-07
1.05643e-06
1.00577e-06
-1.53274e-07
9.98983e-07
-1.52037e-07
1.00207e-06
-1.26913e-07
1.00892e-06
-1.29911e-07
1.01726e-06
-1.17884e-07
1.02603e-06
-1.35029e-07
1.03315e-06
-1.2869e-07
1.03197e-06
-1.6442e-07
1.04459e-06
-1.60702e-07
-2.10176e-07
1.06096e-06
1.02917e-06
-1.47659e-07
1.02549e-06
-1.48356e-07
1.02571e-06
-1.27137e-07
1.02778e-06
-1.3198e-07
1.03038e-06
-1.2048e-07
1.0333e-06
-1.37949e-07
1.03737e-06
-1.32765e-07
1.04035e-06
-1.67401e-07
1.04831e-06
-1.6866e-07
-2.11718e-07
1.04985e-06
1.05142e-06
-1.42994e-07
1.04506e-06
-1.41997e-07
1.04354e-06
-1.25613e-07
1.04283e-06
-1.31275e-07
1.0448e-06
-1.22449e-07
1.04501e-06
-1.3816e-07
1.04714e-06
-1.34897e-07
1.04393e-06
-1.64187e-07
1.04594e-06
-1.70673e-07
-2.07865e-07
1.04209e-06
1.06903e-06
-1.3599e-07
1.06231e-06
-1.35281e-07
1.05911e-06
-1.22418e-07
1.05572e-06
-1.27881e-07
1.05394e-06
-1.20667e-07
1.0512e-06
-1.35426e-07
1.05066e-06
-1.34353e-07
1.04558e-06
-1.59109e-07
1.04194e-06
-1.67028e-07
-2.01219e-07
1.03529e-06
1.08458e-06
-1.28317e-07
1.07648e-06
-1.2718e-07
1.07133e-06
-1.17272e-07
1.06585e-06
-1.22394e-07
1.06269e-06
-1.17508e-07
1.05699e-06
-1.29729e-07
1.05306e-06
-1.30416e-07
1.04602e-06
-1.52072e-07
1.04066e-06
-1.61673e-07
-1.89917e-07
1.02936e-06
1.09734e-06
-1.19121e-07
1.08839e-06
-1.18227e-07
1.08157e-06
-1.10458e-07
1.07408e-06
-1.14905e-07
1.06811e-06
-1.11534e-07
1.06091e-06
-1.2253e-07
1.05498e-06
-1.24484e-07
1.04533e-06
-1.42429e-07
1.0355e-06
-1.5184e-07
-1.7716e-07
1.02275e-06
1.10826e-06
-1.08961e-07
1.09803e-06
-1.07999e-07
1.08964e-06
-1.02064e-07
1.08068e-06
-1.05947e-07
1.07314e-06
-1.03996e-07
1.06361e-06
-1.13e-07
1.055e-06
-1.15869e-07
1.04409e-06
-1.31522e-07
1.03292e-06
-1.40673e-07
-1.61924e-07
1.01769e-06
1.11715e-06
-9.76008e-08
1.10603e-06
-9.68795e-08
1.0962e-06
-9.22263e-08
1.0857e-06
-9.54505e-08
1.07614e-06
-9.44383e-08
1.06546e-06
-1.02318e-07
1.05514e-06
-1.05553e-07
1.04231e-06
-1.18688e-07
1.02874e-06
-1.27108e-07
-1.45525e-07
1.01235e-06
1.12469e-06
-8.53414e-08
1.11246e-06
-8.46475e-08
1.10133e-06
-8.11019e-08
1.08967e-06
-8.37859e-08
1.07871e-06
-8.34776e-08
1.06646e-06
-9.00684e-08
1.0544e-06
-9.34931e-08
1.04041e-06
-1.04698e-07
1.02564e-06
-1.12337e-07
-1.27759e-07
1.00787e-06
1.13064e-06
-7.20935e-08
1.11751e-06
-7.1522e-08
1.10527e-06
-6.88593e-08
1.0925e-06
-7.10128e-08
1.08019e-06
-7.11664e-08
1.06691e-06
-7.67906e-08
1.05358e-06
-8.01612e-08
1.03837e-06
-8.94905e-08
1.02228e-06
-9.62468e-08
-1.09134e-07
1.00365e-06
1.13575e-06
-5.7988e-08
1.12165e-06
-5.7426e-08
1.10838e-06
-5.55932e-08
1.09466e-06
-5.72937e-08
1.08132e-06
-5.78189e-08
1.06699e-06
-6.24587e-08
1.05252e-06
-6.56981e-08
1.0364e-06
-7.33634e-08
1.01942e-06
-7.92745e-08
-8.96915e-08
9.99981e-07
1.13924e-06
-4.29131e-08
1.12431e-06
-4.24946e-08
1.11021e-06
-4.14966e-08
1.09568e-06
-4.27613e-08
1.08148e-06
-4.36228e-08
1.06632e-06
-4.72962e-08
1.05096e-06
-5.03381e-08
1.03395e-06
-5.63482e-08
1.01612e-06
-6.1453e-08
-6.94953e-08
9.95929e-07
1.14093e-06
-2.65619e-08
1.12476e-06
-2.63249e-08
1.10947e-06
-2.62063e-08
1.09385e-06
-2.71361e-08
1.07858e-06
-2.83536e-08
1.06226e-06
-3.09762e-08
1.04567e-06
-3.3751e-08
1.02735e-06
-3.80215e-08
1.00815e-06
-4.22554e-08
-4.78078e-08
9.86461e-07
1.10905e-06
-9.10184e-09
1.09209e-06
-9.36704e-09
1.07563e-06
-9.73867e-09
1.05891e-06
-1.04144e-08
1.04207e-06
-1.15228e-08
1.02415e-06
-1.30494e-08
1.0054e-06
-1.49988e-08
9.84721e-07
-1.73466e-08
9.62522e-07
-2.00571e-08
-2.28815e-08
9.37596e-07
7.86061e-07
7.76694e-07
7.66955e-07
7.56541e-07
7.45018e-07
7.31969e-07
7.1697e-07
6.99623e-07
6.79566e-07
6.56685e-07
4.72219e-08
-4.72219e-08
2.10229e-08
2.61991e-08
-7.15843e-08
9.26072e-08
-2.92904e-07
2.2132e-07
-5.48769e-07
2.55865e-07
-7.56074e-07
2.07305e-07
-9.19026e-07
1.62952e-07
-9.85386e-07
6.63603e-08
-9.68179e-07
-1.7207e-08
-8.76615e-07
-9.15644e-08
-7.41307e-07
-1.35308e-07
-5.74301e-07
-1.67006e-07
-3.94065e-07
-1.80236e-07
-2.1719e-07
-1.76875e-07
-5.14301e-08
-1.6576e-07
9.06666e-08
-1.42097e-07
2.0788e-07
-1.17213e-07
2.98714e-07
-9.08337e-08
3.65274e-07
-6.65605e-08
4.10434e-07
-4.51602e-08
4.37439e-07
-2.70043e-08
4.49908e-07
-1.24691e-08
4.51692e-07
-1.78443e-09
4.46474e-07
5.21768e-09
4.37086e-07
9.38828e-09
4.25681e-07
1.14052e-08
4.13808e-07
1.18732e-08
4.02472e-07
1.13354e-08
3.9224e-07
1.02325e-08
3.83395e-07
8.8451e-09
3.75938e-07
7.45643e-09
3.69827e-07
6.11127e-09
3.64837e-07
4.99029e-09
3.60868e-07
3.96843e-09
3.57642e-07
3.22634e-09
3.55144e-07
2.49814e-09
3.5308e-07
2.06426e-09
3.51556e-07
1.52391e-09
3.5023e-07
1.3259e-09
8.95378e-10
5.01724e-08
-9.73944e-08
1.26868e-09
7.51028e-08
-2.17506e-07
3.11382e-07
-4.78532e-07
4.82346e-07
-6.72179e-07
4.49512e-07
-8.27362e-07
3.62488e-07
-9.29234e-07
2.64824e-07
-9.54589e-07
9.17145e-08
-9.05955e-07
-6.58405e-08
-7.98831e-07
-1.98688e-07
-6.5619e-07
-2.77949e-07
-4.89292e-07
-3.33904e-07
-3.0853e-07
-3.60998e-07
-1.311e-07
-3.54305e-07
3.3744e-08
-3.30604e-07
1.79546e-07
-2.87899e-07
3.02217e-07
-2.39884e-07
4.01602e-07
-1.90219e-07
4.79788e-07
-1.44747e-07
5.38903e-07
-1.04275e-07
5.81326e-07
-6.94279e-08
6.10452e-07
-4.15951e-08
6.3026e-07
-2.1592e-08
6.43917e-07
-8.43913e-09
6.53728e-07
-4.22661e-10
6.60791e-07
4.34214e-09
6.65837e-07
6.8269e-09
6.69214e-07
7.95872e-09
6.71177e-07
8.26923e-09
6.72021e-07
8.00139e-09
6.71966e-07
7.51059e-09
6.71325e-07
6.75238e-09
6.70257e-07
6.05832e-09
6.69046e-07
5.17971e-09
6.67728e-07
4.54428e-09
6.66541e-07
3.68466e-09
6.65392e-07
3.21372e-09
6.64497e-07
2.41888e-09
6.63658e-07
2.16511e-09
1.45839e-09
-7.26036e-08
-2.47907e-08
-2.15289e-07
2.17788e-07
-3.58418e-07
4.54511e-07
-4.67604e-07
5.91532e-07
-5.67072e-07
5.4898e-07
-6.62659e-07
4.58075e-07
-7.17676e-07
3.19842e-07
-7.13424e-07
8.74625e-08
-6.47439e-07
-1.31826e-07
-5.45179e-07
-3.00948e-07
-4.153e-07
-4.07828e-07
-2.73951e-07
-4.75253e-07
-1.27584e-07
-5.07365e-07
2.03741e-08
-5.02263e-07
1.5406e-07
-4.64289e-07
2.73255e-07
-4.07094e-07
3.74484e-07
-3.41113e-07
4.56514e-07
-2.72249e-07
5.23068e-07
-2.113e-07
5.77754e-07
-1.58961e-07
6.20047e-07
-1.1172e-07
6.49107e-07
-7.06551e-08
6.67371e-07
-3.9856e-08
6.79247e-07
-2.03151e-08
6.88585e-07
-9.76069e-09
6.97338e-07
-4.41088e-09
7.05848e-07
-1.68303e-09
7.13894e-07
-8.78121e-11
7.21014e-07
1.14891e-09
7.2693e-07
2.08542e-09
7.31561e-07
2.88e-09
7.34992e-07
3.3218e-09
7.37364e-07
3.68582e-09
7.38922e-07
3.62217e-09
7.39845e-07
3.6207e-09
7.40382e-07
3.14801e-09
7.40625e-07
2.97009e-09
7.40764e-07
2.28046e-09
7.40803e-07
2.12605e-09
1.36391e-09
-4.97354e-08
2.49447e-08
-1.35677e-07
3.0373e-07
-2.01217e-07
5.20051e-07
-2.90919e-07
6.81233e-07
-3.5585e-07
6.13911e-07
-4.08292e-07
5.10517e-07
-4.1839e-07
3.2994e-07
-3.94889e-07
6.39617e-08
-3.31401e-07
-1.95314e-07
-2.41284e-07
-3.91065e-07
-1.36412e-07
-5.127e-07
-1.75335e-08
-5.94132e-07
9.95619e-08
-6.24461e-07
2.10213e-07
-6.12914e-07
3.07253e-07
-5.6133e-07
3.89441e-07
-4.89281e-07
4.62371e-07
-4.14043e-07
5.20222e-07
-3.30101e-07
5.61335e-07
-2.52414e-07
5.96908e-07
-1.94534e-07
6.33851e-07
-1.48663e-07
6.67893e-07
-1.04697e-07
6.92707e-07
-6.46698e-08
7.06959e-07
-3.45667e-08
7.14006e-07
-1.68079e-08
7.18103e-07
-8.50773e-09
7.21982e-07
-5.56264e-09
7.26478e-07
-4.58337e-09
7.31469e-07
-3.84216e-09
7.36366e-07
-2.81154e-09
7.40719e-07
-1.47351e-09
7.44276e-07
-2.35384e-10
7.47029e-07
9.33037e-10
7.49052e-07
1.59922e-09
7.50496e-07
2.17685e-09
7.5151e-07
2.13387e-09
7.5221e-07
2.26983e-09
7.52736e-07
1.75542e-09
7.53136e-07
1.72518e-09
9.75426e-10
-4.72937e-08
7.22384e-08
-1.18298e-07
3.74735e-07
-1.24506e-07
5.26258e-07
-1.05747e-07
6.62475e-07
-1.01578e-07
6.09742e-07
-1.03301e-07
5.12241e-07
-8.0153e-08
3.06792e-07
-4.39594e-08
2.77681e-08
-8.14968e-09
-2.31124e-07
2.94646e-08
-4.28679e-07
9.35308e-08
-5.76766e-07
1.84544e-07
-6.85145e-07
2.83127e-07
-7.23043e-07
3.75359e-07
-7.05147e-07
4.46449e-07
-6.3242e-07
4.92528e-07
-5.3536e-07
5.34052e-07
-4.55567e-07
5.78502e-07
-3.7455e-07
6.0595e-07
-2.79862e-07
6.13921e-07
-2.02505e-07
6.21951e-07
-1.56693e-07
6.42164e-07
-1.2491e-07
6.70488e-07
-9.29943e-08
6.97064e-07
-6.11421e-08
7.15888e-07
-3.56326e-08
7.26613e-07
-1.92324e-08
7.32104e-07
-1.10537e-08
7.35335e-07
-7.81453e-09
7.38135e-07
-6.64176e-09
7.4106e-07
-5.73614e-09
7.44015e-07
-4.42939e-09
7.46702e-07
-2.92221e-09
7.48936e-07
-1.30024e-09
7.50642e-07
-1.07387e-10
7.51899e-07
9.20064e-10
7.52791e-07
1.24172e-09
7.53438e-07
1.62251e-09
7.53947e-07
1.24652e-09
7.54363e-07
1.3095e-09
5.497e-10
4.83428e-08
2.38956e-08
9.75487e-08
3.25529e-07
1.72537e-07
4.5127e-07
1.93139e-07
6.41872e-07
2.15895e-07
5.86986e-07
2.46046e-07
4.8209e-07
2.81659e-07
2.71179e-07
3.06747e-07
2.67968e-09
3.19851e-07
-2.44228e-07
3.21639e-07
-4.30467e-07
3.34868e-07
-5.89995e-07
3.80263e-07
-7.3054e-07
4.52404e-07
-7.95184e-07
5.15164e-07
-7.67906e-07
5.61466e-07
-6.78722e-07
5.80863e-07
-5.54757e-07
5.79864e-07
-4.54568e-07
5.95753e-07
-3.90439e-07
6.2763e-07
-3.11739e-07
6.42636e-07
-2.17511e-07
6.35188e-07
-1.49245e-07
6.27213e-07
-1.16935e-07
6.34954e-07
-1.00735e-07
6.5736e-07
-8.35487e-08
6.84842e-07
-6.3114e-08
7.08877e-07
-4.32675e-08
7.25833e-07
-2.80095e-08
7.36032e-07
-1.80136e-08
7.41671e-07
-1.22814e-08
7.44878e-07
-8.94249e-09
7.47045e-07
-6.59668e-09
7.48745e-07
-4.62193e-09
7.50162e-07
-2.71765e-09
7.51327e-07
-1.27276e-09
7.52274e-07
-2.61553e-11
7.52998e-07
5.16982e-10
7.53545e-07
1.07536e-09
7.54016e-07
7.75726e-10
7.5441e-07
9.1588e-10
1.16597e-10
-1.47788e-07
1.71683e-07
5.89409e-08
1.188e-07
2.40833e-07
2.69378e-07
4.37933e-07
4.44772e-07
5.52417e-07
4.72502e-07
6.20621e-07
4.13885e-07
6.58148e-07
2.33653e-07
6.72019e-07
-1.11918e-08
6.59628e-07
-2.31836e-07
6.37956e-07
-4.08795e-07
6.34548e-07
-5.86587e-07
6.50032e-07
-7.46024e-07
6.71001e-07
-8.16154e-07
6.80737e-07
-7.77643e-07
6.8058e-07
-6.78565e-07
6.7976e-07
-5.53937e-07
6.57097e-07
-4.31905e-07
6.24396e-07
-3.57738e-07
6.20197e-07
-3.0754e-07
6.39242e-07
-2.36556e-07
6.49678e-07
-1.59681e-07
6.43013e-07
-1.1027e-07
6.34256e-07
-9.19773e-08
6.37195e-07
-8.64878e-08
6.53579e-07
-7.94984e-08
6.77346e-07
-6.70337e-08
7.01461e-07
-5.21246e-08
7.21207e-07
-3.77598e-08
7.34991e-07
-2.60659e-08
7.43394e-07
-1.73452e-08
7.4802e-07
-1.12221e-08
7.50412e-07
-7.01392e-09
7.51698e-07
-4.00439e-09
7.52446e-07
-2.02036e-09
7.52887e-07
-4.67152e-10
7.53208e-07
1.96021e-10
7.53494e-07
7.89441e-10
7.53765e-07
5.04496e-10
7.54034e-07
6.47021e-10
-2.25699e-10
7.08135e-07
3.96889e-07
5.12059e-07
3.14875e-07
4.51167e-07
3.3027e-07
5.57974e-07
3.37965e-07
7.06205e-07
3.24271e-07
8.33076e-07
2.87014e-07
9.11807e-07
1.54922e-07
9.43298e-07
-4.26833e-08
9.3541e-07
-2.23948e-07
9.12786e-07
-3.86171e-07
9.02831e-07
-5.76632e-07
9.02351e-07
-7.45544e-07
8.85196e-07
-7.98999e-07
8.40201e-07
-7.32647e-07
7.84437e-07
-6.22801e-07
7.52437e-07
-5.21937e-07
7.42266e-07
-4.21735e-07
7.18489e-07
-3.33961e-07
6.86941e-07
-2.75992e-07
6.77594e-07
-2.27208e-07
6.9011e-07
-1.72198e-07
7.03915e-07
-1.24075e-07
7.08132e-07
-9.6194e-08
7.06052e-07
-8.44079e-08
7.05663e-07
-7.91093e-08
7.11965e-07
-7.33358e-08
7.25119e-07
-6.52789e-08
7.41925e-07
-5.45655e-08
7.58461e-07
-4.26021e-08
7.71852e-07
-3.07356e-08
7.81073e-07
-2.04432e-08
7.86507e-07
-1.24484e-08
7.89234e-07
-6.73062e-09
7.90404e-07
-3.19035e-09
7.90911e-07
-9.74719e-10
7.91208e-07
-1.01059e-10
7.91393e-07
6.04207e-10
7.91632e-07
2.65545e-10
7.91876e-07
4.03705e-10
-5.50572e-10
1.06464e-06
3.81861e-07
1.01008e-06
3.69434e-07
9.36741e-07
4.03607e-07
9.20304e-07
3.54402e-07
9.61015e-07
2.8356e-07
1.02919e-06
2.1884e-07
1.09346e-06
9.0653e-08
1.13379e-06
-8.3017e-08
1.14255e-06
-2.32708e-07
1.13802e-06
-3.81642e-07
1.11028e-06
-5.48891e-07
1.05021e-06
-6.85469e-07
9.77013e-07
-7.25807e-07
8.93363e-07
-6.48998e-07
8.09805e-07
-5.39242e-07
7.48063e-07
-4.60196e-07
7.23307e-07
-3.96978e-07
7.21919e-07
-3.32573e-07
7.19176e-07
-2.7325e-07
7.12632e-07
-2.20665e-07
7.13928e-07
-1.73493e-07
7.27129e-07
-1.37277e-07
7.46599e-07
-1.15664e-07
7.63273e-07
-1.01082e-07
7.70753e-07
-8.65893e-08
7.69124e-07
-7.17075e-08
7.63939e-07
-6.0093e-08
7.61158e-07
-5.17853e-08
7.63236e-07
-4.46801e-08
7.69045e-07
-3.65439e-08
7.76099e-07
-2.74975e-08
7.82285e-07
-1.86341e-08
7.86703e-07
-1.11494e-08
7.89316e-07
-5.80301e-09
7.9053e-07
-2.1882e-09
7.90897e-07
-4.68311e-10
7.90973e-07
5.2759e-10
7.90995e-07
2.43679e-10
7.91047e-07
3.5174e-10
-7.89734e-10
1.07981e-06
3.50878e-07
1.13292e-06
3.16326e-07
1.16206e-06
3.74471e-07
1.18795e-06
3.28509e-07
1.22514e-06
2.46368e-07
1.26047e-06
1.83506e-07
1.30412e-06
4.70068e-08
1.33702e-06
-1.15916e-07
1.32839e-06
-2.24081e-07
1.29876e-06
-3.52012e-07
1.2451e-06
-4.95226e-07
1.13054e-06
-5.70914e-07
9.89781e-07
-5.85044e-07
8.8727e-07
-5.46486e-07
8.28469e-07
-4.80442e-07
7.93738e-07
-4.25464e-07
7.68438e-07
-3.71678e-07
7.49272e-07
-3.13407e-07
7.4334e-07
-2.67318e-07
7.50904e-07
-2.28228e-07
7.60656e-07
-1.83245e-07
7.64006e-07
-1.40627e-07
7.65208e-07
-1.16867e-07
7.7301e-07
-1.08883e-07
7.88231e-07
-1.01811e-07
8.03273e-07
-8.6749e-08
8.10443e-07
-6.7263e-08
8.08056e-07
-4.9399e-08
8.00216e-07
-3.68401e-08
7.92269e-07
-2.85968e-08
7.87309e-07
-2.25369e-08
7.85649e-07
-1.69746e-08
7.86082e-07
-1.15822e-08
7.87312e-07
-7.0328e-09
7.88652e-07
-3.52863e-09
7.89762e-07
-1.57847e-09
7.90534e-07
-2.43992e-10
7.9103e-07
-2.52197e-10
7.91378e-07
3.7787e-12
-1.02557e-09
1.10204e-06
3.02117e-07
1.15274e-06
2.65627e-07
1.19758e-06
3.29634e-07
1.2449e-06
2.81189e-07
1.28508e-06
2.0618e-07
1.32444e-06
1.44148e-07
1.35659e-06
1.48573e-08
1.3652e-06
-1.24522e-07
1.35291e-06
-2.11792e-07
1.29978e-06
-2.98878e-07
1.21592e-06
-4.1137e-07
1.11925e-06
-4.74246e-07
1.00912e-06
-4.74913e-07
9.25345e-07
-4.62709e-07
8.82222e-07
-4.37319e-07
8.57696e-07
-4.00938e-07
8.40238e-07
-3.54219e-07
8.18069e-07
-2.91239e-07
7.90229e-07
-2.39477e-07
7.77042e-07
-2.15042e-07
7.86913e-07