/*--------------------------------*- C++ -*----------------------------------*\
| =========                 |                                                 |
| \\      /  F ield         | OpenFOAM: The Open Source CFD Toolbox           |
|  \\    /   O peration     | Version:  2112                                  |
|   \\  /    A nd           | Website:  www.openfoam.com                      |
|    \\/     M anipulation  |                                                 |
\*---------------------------------------------------------------------------*/
FoamFile
{
    version     2.0;
    format      ascii;
    arch        "LSB;label=32;scalar=64";
    class       volVectorField;
    location    "0.28";
    object      U;
}
// * * * * * * * * * * * * * * * * * * * * * * * * * * * * * * * * * * * * * //

dimensions      [0 1 -1 0 0 0 0];

internalField   nonuniform List<vector> 
1880
(
(0.099008 0.00061807 0)
(0.0984371 0.00114114 0)
(0.097316 0.00130835 0)
(0.0959462 0.00131161 0)
(0.0940544 0.0013807 0)
(0.0925082 0.00134422 0)
(0.0905296 0.00143277 0)
(0.0890114 0.00141138 0)
(0.0869043 0.0014598 0)
(0.0854556 0.00138361 0)
(0.0831544 0.00138121 0)
(0.0817627 0.00137568 0)
(0.0794244 0.00140408 0)
(0.0779692 0.00149038 0)
(0.0753229 0.00131129 0)
(0.0739469 0.00141845 0)
(0.0712605 0.00118419 0)
(0.0698791 0.00172917 0)
(0.0668043 0.00120387 0)
(0.0653108 0.00212093 0)
(0.0616698 0.000734785 0)
(0.0606716 0.00233598 0)
(0.0560544 0.000129935 0)
(0.0563894 0.00238868 0)
(0.0500627 0.000554501 0)
(0.0516352 0.00212796 0)
(0.0428891 0.00220789 0)
(0.0446921 0.0027573 0)
(0.0324319 0.00308918 0)
(0.0330424 0.00740399 0)
(0.0999128 0.000725901 0)
(0.100442 0.00137454 0)
(0.100468 0.0016989 0)
(0.101251 0.00167139 0)
(0.100748 0.00194752 0)
(0.101687 0.00179918 0)
(0.100672 0.00217506 0)
(0.101753 0.00193171 0)
(0.100381 0.00235511 0)
(0.101672 0.00207515 0)
(0.0999708 0.00246238 0)
(0.101126 0.00212259 0)
(0.0994595 0.00256869 0)
(0.100436 0.00228695 0)
(0.0988106 0.00296292 0)
(0.099052 0.00227801 0)
(0.0982547 0.00319401 0)
(0.0968397 0.0023339 0)
(0.0978267 0.00357045 0)
(0.094172 0.00273072 0)
(0.0967701 0.00403687 0)
(0.0918344 0.00303848 0)
(0.0937829 0.00429254 0)
(0.0894799 0.00355375 0)
(0.0896741 0.00404559 0)
(0.0853556 0.00545505 0)
(0.0853039 0.00462412 0)
(0.0786875 0.00747406 0)
(0.0786938 0.0095755 0)
(0.0691485 0.0102415 0)
(0.0999448 0.00025822 0)
(0.100293 0.000664177 0)
(0.100382 0.000990667 0)
(0.101022 0.00109711 0)
(0.100848 0.00137625 0)
(0.10164 0.00127834 0)
(0.10121 0.00168471 0)
(0.101951 0.00142526 0)
(0.10148 0.00195727 0)
(0.102177 0.00164699 0)
(0.101922 0.00210795 0)
(0.101942 0.00194999 0)
(0.102413 0.00216204 0)
(0.101698 0.00228639 0)
(0.102651 0.00257445 0)
(0.101376 0.00228453 0)
(0.102589 0.00324913 0)
(0.101092 0.00232156 0)
(0.102065 0.00381636 0)
(0.100526 0.00320285 0)
(0.101316 0.00368977 0)
(0.0998906 0.00443535 0)
(0.0998218 0.00408878 0)
(0.0986414 0.00456546 0)
(0.0977019 0.00674161 0)
(0.0954219 0.00438673 0)
(0.0957838 0.0102079 0)
(0.0905959 0.00812186 0)
(0.0918475 0.0128785 0)
(0.0870816 0.0148947 0)
(0.0999521 0.000245192 0)
(0.100177 0.000615158 0)
(0.100167 0.000999667 0)
(0.100661 0.00110433 0)
(0.100482 0.00144461 0)
(0.101203 0.00130616 0)
(0.100826 0.00180172 0)
(0.101574 0.00140275 0)
(0.101027 0.0021528 0)
(0.10198 0.00152179 0)
(0.101356 0.00249811 0)
(0.101958 0.00172454 0)
(0.101834 0.0026965 0)
(0.101888 0.00202687 0)
(0.102292 0.0029942 0)
(0.101553 0.00243898 0)
(0.102586 0.00340314 0)
(0.101423 0.00289035 0)
(0.102275 0.00386895 0)
(0.101318 0.00361395 0)
(0.101751 0.00437962 0)
(0.100972 0.00461291 0)
(0.101244 0.00535945 0)
(0.0996501 0.00559115 0)
(0.100146 0.00746859 0)
(0.098052 0.00702291 0)
(0.0977215 0.0103086 0)
(0.0963331 0.0108353 0)
(0.0956971 0.0143292 0)
(0.0930678 0.0156202 0)
(0.0999587 0.000154098 0)
(0.100125 0.000404458 0)
(0.100092 0.000688841 0)
(0.100483 0.000807071 0)
(0.100346 0.00108306 0)
(0.10092 0.00104336 0)
(0.100736 0.00140638 0)
(0.101218 0.00121732 0)
(0.101008 0.00167798 0)
(0.101567 0.00144898 0)
(0.101368 0.00193375 0)
(0.101604 0.0018014 0)
(0.101743 0.00215394 0)
(0.101798 0.00207513 0)
(0.101941 0.00266731 0)
(0.101803 0.00222168 0)
(0.102057 0.00353904 0)
(0.101897 0.0024484 0)
(0.101963 0.00427187 0)
(0.101691 0.00330743 0)
(0.101734 0.00472555 0)
(0.101461 0.00447618 0)
(0.101193 0.00607404 0)
(0.100955 0.00528953 0)
(0.100211 0.00878072 0)
(0.100155 0.00696241 0)
(0.0989038 0.0115397 0)
(0.0991478 0.011062 0)
(0.0978179 0.0152109 0)
(0.0982736 0.0158964 0)
(0.0999584 0.000128978 0)
(0.100112 0.000345613 0)
(0.100051 0.000602457 0)
(0.10041 0.000728302 0)
(0.100237 0.000993477 0)
(0.100789 0.000980907 0)
(0.1006 0.00133667 0)
(0.101075 0.00115434 0)
(0.100871 0.00164414 0)
(0.101426 0.00135187 0)
(0.10127 0.00195661 0)
(0.101427 0.00169685 0)
(0.10174 0.00219391 0)
(0.101576 0.00209527 0)
(0.102077 0.00252639 0)
(0.101577 0.0025531 0)
(0.102187 0.00316926 0)
(0.101947 0.0030008 0)
(0.101943 0.00401235 0)
(0.102097 0.00365845 0)
(0.101749 0.00485841 0)
(0.101899 0.00479479 0)
(0.101734 0.00615391 0)
(0.101408 0.00620411 0)
(0.101257 0.00855373 0)
(0.101232 0.00815391 0)
(0.100454 0.0114355 0)
(0.100916 0.0118944 0)
(0.100449 0.0149206 0)
(0.100565 0.0164923 0)
(0.0999618 9.5346e-05 0)
(0.100095 0.000276324 0)
(0.100033 0.000462187 0)
(0.100345 0.000594163 0)
(0.10019 0.00077628 0)
(0.100668 0.000843637 0)
(0.100559 0.0010616 0)
(0.100926 0.00106011 0)
(0.100852 0.00130871 0)
(0.101292 0.00131081 0)
(0.10125 0.00158432 0)
(0.101382 0.00166551 0)
(0.101652 0.00190858 0)
(0.101686 0.00196504 0)
(0.101944 0.00243861 0)
(0.101787 0.00225503 0)
(0.102163 0.00326299 0)
(0.102133 0.00271128 0)
(0.102183 0.00409242 0)
(0.102308 0.00356497 0)
(0.102109 0.00490007 0)
(0.102421 0.00474884 0)
(0.102144 0.0063729 0)
(0.102282 0.00609292 0)
(0.102133 0.00875661 0)
(0.102341 0.00819649 0)
(0.101992 0.0114482 0)
(0.102687 0.0116477 0)
(0.102397 0.0148859 0)
(0.103203 0.015652 0)
(0.099964 7.1849e-05 0)
(0.100086 0.000224464 0)
(0.100026 0.000366093 0)
(0.100315 0.000492802 0)
(0.100168 0.000634045 0)
(0.100613 0.000726557 0)
(0.100537 0.000899808 0)
(0.10086 0.000948195 0)
(0.100855 0.00113846 0)
(0.101221 0.00120767 0)
(0.101309 0.00140251 0)
(0.101306 0.00158973 0)
(0.101773 0.00169624 0)
(0.101646 0.00198356 0)
(0.102106 0.00213642 0)
(0.101865 0.00240152 0)
(0.102306 0.00289395 0)
(0.102409 0.00289474 0)
(0.102386 0.00384844 0)
(0.102672 0.00363616 0)
(0.102589 0.00480174 0)
(0.102802 0.00485047 0)
(0.102935 0.00613046 0)
(0.102948 0.00640466 0)
(0.103117 0.00830528 0)
(0.10347 0.00847694 0)
(0.103437 0.0109032 0)
(0.104136 0.0116251 0)
(0.104443 0.0140388 0)
(0.10515 0.0152889 0)
(0.0999684 4.98706e-05 0)
(0.100077 0.000178262 0)
(0.10003 0.000272102 0)
(0.100293 0.000396648 0)
(0.100171 0.000479207 0)
(0.100576 0.000607642 0)
(0.100546 0.000698329 0)
(0.100828 0.000832907 0)
(0.100874 0.000903864 0)
(0.101223 0.0010923 0)
(0.101335 0.0011648 0)
(0.101373 0.00143679 0)
(0.1018 0.00152258 0)
(0.1018 0.00176152 0)
(0.102171 0.00203914 0)
(0.102074 0.00214166 0)
(0.10249 0.00278215 0)
(0.102659 0.00272769 0)
(0.102734 0.00363948 0)
(0.10303 0.00357815 0)
(0.103053 0.00457462 0)
(0.103386 0.0047327 0)
(0.103568 0.00595473 0)
(0.103737 0.00620426 0)
(0.104097 0.00798553 0)
(0.104501 0.00824388 0)
(0.104765 0.0103931 0)
(0.105585 0.0110613 0)
(0.106083 0.0132947 0)
(0.107005 0.014308 0)
(0.099973 3.04671e-05 0)
(0.10007 0.000130324 0)
(0.10004 0.000185096 0)
(0.100281 0.000294105 0)
(0.100187 0.000336624 0)
(0.100562 0.000470555 0)
(0.100576 0.000516367 0)
(0.100823 0.000685578 0)
(0.100929 0.000694513 0)
(0.10124 0.000942626 0)
(0.101422 0.000931912 0)
(0.101429 0.00129077 0)
(0.101919 0.00127249 0)
(0.101933 0.00163876 0)
(0.102318 0.00175643 0)
(0.102308 0.00204724 0)
(0.102695 0.00246905 0)
(0.102979 0.0026372 0)
(0.1031 0.00334102 0)
(0.103389 0.00347019 0)
(0.103634 0.00426133 0)
(0.103877 0.00463517 0)
(0.104289 0.00552049 0)
(0.104516 0.00608986 0)
(0.104979 0.00739996 0)
(0.105523 0.00798039 0)
(0.106002 0.00962776 0)
(0.106812 0.0105118 0)
(0.107604 0.0122283 0)
(0.108555 0.0133768 0)
(0.0999782 1.16941e-05 0)
(0.100063 8.08229e-05 0)
(0.100055 9.8033e-05 0)
(0.100278 0.000187486 0)
(0.100217 0.000191923 0)
(0.100569 0.000323609 0)
(0.100624 0.000329002 0)
(0.100852 0.000517344 0)
(0.100995 0.0004821 0)
(0.101309 0.000750641 0)
(0.101507 0.000711567 0)
(0.101554 0.00106005 0)
(0.10203 0.00106821 0)
(0.102131 0.00137676 0)
(0.10248 0.00154641 0)
(0.102566 0.0017881 0)
(0.102953 0.00219233 0)
(0.103302 0.00242135 0)
(0.103488 0.00299395 0)
(0.103814 0.0032598 0)
(0.104146 0.00390256 0)
(0.104462 0.00432876 0)
(0.104952 0.00512962 0)
(0.105272 0.00567874 0)
(0.105838 0.00682955 0)
(0.106473 0.00745416 0)
(0.107078 0.00883923 0)
(0.107967 0.0096924 0)
(0.10889 0.0111612 0)
(0.109924 0.0122042 0)
(0.0999834 -7.04721e-06 0)
(0.100058 2.69638e-05 0)
(0.100074 1.01941e-05 0)
(0.100282 7.31224e-05 0)
(0.100258 4.89809e-05 0)
(0.100591 0.000167019 0)
(0.100691 0.000148704 0)
(0.100901 0.000340006 0)
(0.101087 0.00027903 0)
(0.101397 0.000555532 0)
(0.101624 0.000486229 0)
(0.101696 0.000844541 0)
(0.102177 0.000826354 0)
(0.102346 0.00115625 0)
(0.102675 0.00127351 0)
(0.102846 0.00156363 0)
(0.103237 0.00186944 0)
(0.10364 0.00218538 0)
(0.103909 0.00263163 0)
(0.104227 0.00300453 0)
(0.104692 0.00349142 0)
(0.10503 0.00402313 0)
(0.105594 0.00462733 0)
(0.106024 0.00526207 0)
(0.106628 0.00617266 0)
(0.107344 0.00687155 0)
(0.108079 0.00795989 0)
(0.108975 0.00885331 0)
(0.110018 0.0100026 0)
(0.111092 0.0110161 0)
(0.0999884 -2.76874e-05 0)
(0.100056 -3.67138e-05 0)
(0.100099 -9.05489e-05 0)
(0.100299 -6.45608e-05 0)
(0.100316 -0.000118108 0)
(0.10064 -2.80592e-05 0)
(0.100782 -6.72433e-05 0)
(0.100987 0.000103658 0)
(0.101203 3.14334e-05 0)
(0.101524 0.000282224 0)
(0.101762 0.000211874 0)
(0.101876 0.000530313 0)
(0.10235 0.000534047 0)
(0.10259 0.00082418 0)
(0.102904 0.000943707 0)
(0.103142 0.00121962 0)
(0.103551 0.00147471 0)
(0.104001 0.00182636 0)
(0.104327 0.0021912 0)
(0.104684 0.00260256 0)
(0.105208 0.00302496 0)
(0.105616 0.00353103 0)
(0.106222 0.00407982 0)
(0.106731 0.00466108 0)
(0.107376 0.00544279 0)
(0.108154 0.00612174 0)
(0.108952 0.00702588 0)
(0.109879 0.00784901 0)
(0.110978 0.00881755 0)
(0.112096 0.00971146 0)
(0.0999928 -5.03591e-05 0)
(0.100055 -0.00010542 0)
(0.100125 -0.000193384 0)
(0.100322 -0.000200894 0)
(0.100381 -0.000271808 0)
(0.100702 -0.000202701 0)
(0.100886 -0.000247775 0)
(0.101089 -9.36201e-05 0)
(0.101341 -0.00016371 0)
(0.101673 6.25164e-05 0)
(0.101925 -5.7661e-06 0)
(0.10208 0.000283221 0)
(0.102555 0.000296783 0)
(0.102856 0.000568344 0)
(0.103165 0.000667607 0)
(0.103459 0.000938021 0)
(0.103899 0.00113827 0)
(0.104378 0.00150663 0)
(0.104769 0.00179922 0)
(0.105153 0.00223377 0)
(0.105731 0.00257995 0)
(0.106208 0.00309022 0)
(0.106835 0.00354811 0)
(0.107422 0.00410762 0)
(0.108098 0.00475422 0)
(0.108904 0.00540616 0)
(0.109766 0.00612673 0)
(0.110696 0.00689291 0)
(0.11182 0.00766313 0)
(0.112963 0.00845564 0)
(0.0999968 -8.36954e-05 0)
(0.100065 -0.000208174 0)
(0.100172 -0.000349172 0)
(0.100381 -0.000409301 0)
(0.100492 -0.000505611 0)
(0.100821 -0.000471573 0)
(0.101044 -0.000525831 0)
(0.101252 -0.000404604 0)
(0.10153 -0.000471202 0)
(0.101875 -0.000291826 0)
(0.102136 -0.000357409 0)
(0.102332 -0.000116791 0)
(0.102807 -8.98015e-05 0)
(0.103158 0.000142109 0)
(0.103466 0.000224144 0)
(0.103804 0.000468146 0)
(0.104273 0.000635205 0)
(0.104779 0.000991958 0)
(0.105215 0.00124711 0)
(0.105644 0.00165795 0)
(0.106264 0.00197462 0)
(0.106809 0.00243205 0)
(0.107462 0.00284255 0)
(0.108094 0.00334768 0)
(0.108789 0.00389741 0)
(0.109601 0.00450157 0)
(0.110479 0.00510605 0)
(0.111405 0.00578281 0)
(0.112525 0.00643642 0)
(0.113671 0.00710748 0)
(0.0999995 -0.000111604 0)
(0.100076 -0.000288782 0)
(0.100223 -0.000456929 0)
(0.100459 -0.00054133 0)
(0.10063 -0.000638068 0)
(0.100974 -0.000622703 0)
(0.101234 -0.000675692 0)
(0.101452 -0.000584186 0)
(0.101756 -0.000646662 0)
(0.102114 -0.000507998 0)
(0.10239 -0.00056893 0)
(0.102628 -0.0003645 0)
(0.103108 -0.000327775 0)
(0.103495 -0.000130482 0)
(0.103819 -6.1334e-05 0)
(0.104203 0.000162934 0)
(0.104714 0.000308837 0)
(0.105234 0.00063672 0)
(0.105709 0.000845216 0)
(0.106174 0.00122553 0)
(0.106829 0.00151279 0)
(0.107437 0.00194428 0)
(0.108122 0.0023221 0)
(0.10879 0.00279491 0)
(0.109517 0.00326655 0)
(0.110309 0.0038125 0)
(0.111201 0.00429454 0)
(0.112097 0.0048653 0)
(0.113193 0.00537051 0)
(0.114309 0.00590846 0)
(0.100002 -0.000203746 0)
(0.100118 -0.000536637 0)
(0.100328 -0.000789823 0)
(0.100611 -0.000922415 0)
(0.100843 -0.0010268 0)
(0.101203 -0.00103398 0)
(0.101486 -0.00108607 0)
(0.101712 -0.00102903 0)
(0.102042 -0.00108624 0)
(0.102416 -0.000993203 0)
(0.102708 -0.00103955 0)
(0.102982 -0.000860389 0)
(0.103461 -0.000812923 0)
(0.103879 -0.000660365 0)
(0.104235 -0.000619253 0)
(0.10465 -0.000425091 0)
(0.105187 -0.000293203 0)
(0.105682 -3.12798e-06 0)
(0.106199 0.000170701 0)
(0.106706 0.000490075 0)
(0.107438 0.000737468 0)
(0.1081 0.0011033 0)
(0.108847 0.00144201 0)
(0.109501 0.00187901 0)
(0.110246 0.00230378 0)
(0.110954 0.00280757 0)
(0.111827 0.0032288 0)
(0.112631 0.00372084 0)
(0.113713 0.0041438 0)
(0.11475 0.00457732 0)
(0.100002 -0.000232285 0)
(0.100223 -0.000602323 0)
(0.100568 -0.000836899 0)
(0.100959 -0.000969587 0)
(0.101262 -0.00106079 0)
(0.10164 -0.00108829 0)
(0.101923 -0.00114009 0)
(0.102166 -0.00113633 0)
(0.102484 -0.00119484 0)
(0.10287 -0.00114207 0)
(0.103146 -0.00117098 0)
(0.103445 -0.00103191 0)
(0.103873 -0.00101237 0)
(0.104272 -0.00092772 0)
(0.104619 -0.000894931 0)
(0.105036 -0.000708528 0)
(0.105569 -0.000574182 0)
(0.106011 -0.000356403 0)
(0.106527 -0.000245357 0)
(0.10701 7.40591e-06 0)
(0.107766 0.000240103 0)
(0.10842 0.000607719 0)
(0.109239 0.000985801 0)
(0.109879 0.00144389 0)
(0.110705 0.00186616 0)
(0.111359 0.0023216 0)
(0.112282 0.0026473 0)
(0.113018 0.00300924 0)
(0.114122 0.00327703 0)
(0.115077 0.0035445 0)
(0.0999999 -0.000693356 0)
(0.100326 -0.00136294 0)
(0.100722 -0.00156225 0)
(0.1011 -0.00162268 0)
(0.101307 -0.00168596 0)
(0.10156 -0.00172149 0)
(0.101648 -0.00176151 0)
(0.101771 -0.00177301 0)
(0.10184 -0.00180071 0)
(0.102057 -0.0017715 0)
(0.101994 -0.0017459 0)
(0.102132 -0.00161431 0)
(0.102207 -0.0015815 0)
(0.102428 -0.0015717 0)
(0.102401 -0.00154524 0)
(0.102598 -0.00138339 0)
(0.102697 -0.00121682 0)
(0.102953 -0.00103128 0)
(0.103144 -0.000943498 0)
(0.10355 -0.000786116 0)
(0.103971 -0.000649163 0)
(0.104514 -0.000402148 0)
(0.105014 -9.27029e-05 0)
(0.105654 0.000320224 0)
(0.106349 0.000730136 0)
(0.107228 0.00116371 0)
(0.10819 0.00148135 0)
(0.109319 0.00179935 0)
(0.110539 0.00200935 0)
(0.111926 0.00219605 0)
(0.0990347 -0.00060632 0)
(0.0984382 -0.0011422 0)
(0.0974393 -0.00127113 0)
(0.0960215 -0.00128925 0)
(0.0943561 -0.00130951 0)
(0.0927587 -0.00130876 0)
(0.0911567 -0.00132642 0)
(0.0895609 -0.00133794 0)
(0.0879899 -0.00131551 0)
(0.0864956 -0.0012549 0)
(0.0848943 -0.00119209 0)
(0.0835122 -0.0011426 0)
(0.0821164 -0.00115023 0)
(0.0807801 -0.00113652 0)
(0.0793032 -0.00102863 0)
(0.078181 -0.000873208 0)
(0.0770513 -0.000797078 0)
(0.0761819 -0.000810873 0)
(0.075129 -0.000822586 0)
(0.0743939 -0.0007533 0)
(0.0735524 -0.000614872 0)
(0.0731474 -0.00037946 0)
(0.0727512 -0.000114635 0)
(0.0729492 0.000154872 0)
(0.0731908 0.000369589 0)
(0.0740535 0.00053029 0)
(0.0748241 0.000624629 0)
(0.0761684 0.0007002 0)
(0.0772662 0.000729663 0)
(0.078925 0.000748316 0)
(0.015179 0.00244687 0)
(0.0541037 0.0169363 0)
(0.0407816 0.0172503 0)
(0.0686132 0.0304155 8.46709e-22)
(0.0570507 0.0276792 7.07491e-22)
(0.0809121 0.0350289 0)
(0.0718086 0.0309955 2.8726e-22)
(0.097735 0.038016 -1.9615e-23)
(0.0860879 0.0382795 7.37048e-22)
(0.125877 0.050349 0)
(0.069551 0.0157966 0)
(0.0791055 0.0239744 0)
(0.0844207 0.028968 0)
(0.091075 0.033786 0)
(0.095081 0.034775 0)
(0.102914 0.0437542 1.67029e-22)
(0.110026 0.0432802 4.64679e-23)
(0.120186 0.0585615 -9.29409e-23)
(0.123069 0.0439507 -5.54204e-22)
(0.135851 0.0473232 -4.89163e-22)
(0.0864685 0.0235261 0)
(0.0898788 0.0196396 0)
(0.0941118 0.0305498 0)
(0.0988777 0.0359145 0)
(0.102218 0.0384852 0)
(0.108416 0.0362843 -1.67029e-22)
(0.114093 0.0369009 -4.64676e-23)
(0.121771 0.0398786 9.29403e-23)
(0.135279 0.0500021 2.9052e-22)
(0.137819 0.041453 4.89162e-22)
(0.094135 0.0218176 -3.99616e-22)
(0.0965594 0.0250415 0)
(0.0974106 0.0270769 -3.18108e-22)
(0.102901 0.0311432 -2.55937e-22)
(0.109039 0.0333442 -1.81707e-22)
(0.113656 0.036099 0)
(0.118548 0.0383738 0)
(0.121936 0.0380336 1.35783e-22)
(0.132665 0.0399601 2.84831e-22)
(0.139645 0.0400256 4.36232e-22)
(0.0966513 0.0220106 3.99617e-22)
(0.1006 0.0218669 0)
(0.102802 0.0275179 3.1811e-22)
(0.106836 0.0292213 2.55939e-22)
(0.110816 0.0325448 1.81707e-22)
(0.114772 0.0316607 0)
(0.119969 0.0339479 0)
(0.126701 0.031022 -1.35784e-22)
(0.13237 0.0366057 -2.84833e-22)
(0.138395 0.0343493 -4.36233e-22)
(0.100796 0.0204295 0)
(0.103262 0.0219537 -2.85576e-22)
(0.105429 0.0251051 0)
(0.109364 0.0263493 -1.86427e-22)
(0.113583 0.0288138 0)
(0.117568 0.0290603 0)
(0.122958 0.031639 0)
(0.127706 0.0298139 -1.54655e-22)
(0.131655 0.0314624 0)
(0.139581 0.029579 0)
(0.103346 0.019804 2.84061e-22)
(0.105846 0.0200998 5.39472e-22)
(0.10835 0.0234955 2.11682e-22)
(0.111846 0.0242353 1.86428e-22)
(0.115367 0.0268664 0)
(0.119178 0.0258758 -2.81881e-23)
(0.12344 0.0278993 0)
(0.128613 0.0259225 1.54655e-22)
(0.132985 0.027884 0)
(0.139162 0.0246738 0)
(0.10584 0.0181223 -2.84062e-22)
(0.108073 0.0190137 -2.53896e-22)
(0.110513 0.0214974 -2.11682e-22)
(0.113653 0.0218594 0)
(0.117151 0.0238021 0)
(0.12074 0.0235476 2.81881e-23)
(0.124812 0.0252216 0)
(0.129355 0.0232636 0)
(0.133144 0.0237092 0)
(0.138154 0.0218347 0)
(0.107875 0.0168667 0)
(0.109921 0.0173388 -2.02438e-22)
(0.112371 0.0195402 0)
(0.115358 0.0198319 -1.17276e-22)
(0.118434 0.0216118 0)
(0.121792 0.0207312 0)
(0.12549 0.0220034 6.94981e-23)
(0.12974 0.0206619 1.5106e-22)
(0.133095 0.0210411 0)
(0.137162 0.0181283 3.18438e-22)
(0.109635 0.0152629 0)
(0.11154 0.0158974 2.02438e-22)
(0.1139 0.0175691 0)
(0.11662 0.0177001 1.17276e-22)
(0.119586 0.019012 0)
(0.122757 0.0186416 0)
(0.126063 0.0194743 -6.94982e-23)
(0.129716 0.0179444 -1.5106e-22)
(0.133109 0.0178243 0)
(0.136673 0.0159321 -3.18439e-22)
(0.111098 0.0137931 9.50703e-23)
(0.112904 0.014232 0)
(0.115164 0.0156575 0)
(0.11773 0.0157811 4.44882e-23)
(0.120415 0.016842 0)
(0.123349 0.0162322 0)
(0.126507 0.016847 0)
(0.12983 0.015736 -7.02623e-23)
(0.132697 0.015487 0)
(0.135684 0.0133305 0)
(0.112346 0.0122372 -7.70862e-24)
(0.114065 0.0127008 0)
(0.116183 0.0137871 5.89594e-23)
(0.118577 0.013849 -5.11727e-24)
(0.121153 0.0146307 0)
(0.12387 0.0142564 0)
(0.126686 0.0145708 -3.6383e-23)
(0.129641 0.0134524 7.02624e-23)
(0.132442 0.0130805 -9.87047e-23)
(0.135131 0.011413 -1.31286e-22)
(0.113378 0.0107292 -6.44601e-24)
(0.115025 0.0110828 0)
(0.117036 0.0119805 -5.1808e-24)
(0.119276 0.0120377 -4.04673e-24)
(0.121651 0.0126214 1.44557e-23)
(0.124184 0.0122028 9.26616e-24)
(0.126843 0.0123884 7.56844e-25)
(0.129516 0.0114668 -6.40215e-23)
(0.131989 0.0110511 5.42803e-24)
(0.134394 0.00946611 7.75901e-24)
(0.114252 0.00925258 -8.09161e-23)
(0.115835 0.00956998 0)
(0.117717 0.0102626 -5.37787e-23)
(0.119811 0.0102901 -3.53244e-23)
(0.122069 0.0107046 -1.44557e-23)
(0.124423 0.0103687 -1.91973e-23)
(0.126844 0.0104088 3.56262e-23)
(0.129282 0.00956607 6.40216e-23)
(0.131619 0.00912754 9.32769e-23)
(0.133822 0.00781324 1.23527e-22)
(0.114965 0.00776333 0)
(0.11648 0.00802284 0)
(0.118263 0.00857173 0)
(0.120224 0.00859407 0)
(0.122339 0.00888561 0)
(0.12454 0.0085614 9.93117e-24)
(0.126811 0.00852645 0)
(0.129057 0.0078081 0)
(0.131206 0.00738187 0)
(0.133239 0.00623406 0)
(0.115588 0.00640135 0)
(0.117021 0.00660613 0)
(0.118716 0.00701017 0)
(0.120537 0.0070106 0)
(0.122547 0.0071918 0)
(0.124597 0.00690146 4.90868e-24)
(0.126725 0.00679963 0)
(0.128804 0.00617239 0)
(0.130839 0.00576029 0)
(0.132731 0.00480761 0)
(0.116062 0.00495987 0)
(0.117379 0.00512864 0)
(0.119042 0.00541937 2.08843e-23)
(0.120698 0.00541483 0)
(0.122648 0.00551794 4.90332e-24)
(0.124518 0.005259 -4.90869e-24)
(0.126579 0.00512328 0)
(0.128472 0.00460092 -2.62863e-23)
(0.130431 0.00422353 0)
(0.132148 0.00344461 0)
(0.116417 0.00376172 0)
(0.117472 0.00384794 0)
(0.119156 0.00399857 -2.08844e-23)
(0.120504 0.00396252 0)
(0.122464 0.00396998 -4.90334e-24)
(0.123995 0.00373541 0)
(0.126058 0.00356087 0)
(0.127579 0.00312235 2.62864e-23)
(0.129534 0.00276358 0)
(0.130839 0.00215173 0)
(0.113366 0.00230428 -7.80994e-24)
(0.114072 0.0023485 -6.51909e-24)
(0.115788 0.00239061 -5.00975e-24)
(0.116637 0.00235054 0)
(0.118576 0.00229516 -1.2773e-24)
(0.119463 0.00212393 0)
(0.121468 0.00194654 3.39485e-24)
(0.122182 0.00164174 0)
(0.124039 0.00134162 8.84299e-24)
(0.124321 0.000929794 1.17662e-23)
(0.0802015 0.000723269 7.80906e-24)
(0.0810254 0.000667689 6.51829e-24)
(0.0824598 0.000606298 5.00911e-24)
(0.0832666 0.000539628 0)
(0.0847552 0.000449858 1.27712e-24)
(0.085378 0.000346529 0)
(0.0867347 0.000211391 -3.39431e-24)
(0.0869077 6.14759e-05 0)
(0.0878935 -0.000114495 -8.8414e-24)
(0.0872902 -0.000292016 -1.1764e-23)
(0.00607995 0.00269483 0)
(0.00671709 0.00344192 0)
(-0.000504554 0.00583187 0)
(-0.0186052 0.00969781 0)
(-0.0644506 0.0167636 0)
(-0.0917833 0.0118556 0)
(-0.123603 0.0103468 0)
(-0.135389 0.00469665 0)
(-0.139233 0.000542782 0)
(-0.129202 -0.00357934 0)
(-0.113515 -0.00585144 0)
(-0.0918487 -0.00740801 0)
(-0.0671888 -0.00768637 0)
(-0.0430131 -0.00781346 0)
(-0.0179855 -0.00707848 0)
(0.00328003 -0.00584016 0)
(0.0215632 -0.00454967 0)
(0.0360004 -0.00318647 0)
(0.0469901 -0.00194551 0)
(0.0547843 -0.000858572 0)
(0.0598359 5.06916e-05 0)
(0.0625788 0.000734184 0)
(0.0634804 0.00116462 0)
(0.0631188 0.00137997 0)
(0.0619963 0.00141121 0)
(0.0604746 0.00131983 0)
(0.0587929 0.00115984 0)
(0.0571439 0.000967561 0)
(0.0556107 0.000772258 0)
(0.0542791 0.00059395 0)
(0.0531254 0.000444802 0)
(0.0521917 0.00032654 0)
(0.0514021 0.000238997 0)
(0.0507942 0.000173933 0)
(0.0502781 0.00012987 0)
(0.0498914 9.49648e-05 0)
(0.049569 7.43556e-05 0)
(0.049311 5.27456e-05 0)
(0.0491423 4.47916e-05 0)
(0.0489251 3.03358e-05 0)
(0.00525552 -0.0127088 0)
(0.00825782 0.00137319 0)
(-0.00779513 0.0131538 0)
(-0.0516007 0.035537 0)
(-0.0844109 0.0336354 0)
(-0.106632 0.0283629 0)
(-0.128731 0.0211968 0)
(-0.133494 0.00793804 0)
(-0.131901 -0.00423837 0)
(-0.119317 -0.0153124 0)
(-0.101565 -0.021736 0)
(-0.0802048 -0.0265188 0)
(-0.0551329 -0.0287544 0)
(-0.0307076 -0.0274448 0)
(-0.00622928 -0.0258987 0)
(0.0153615 -0.0223882 0)
(0.0341902 -0.0186554 0)
(0.0496379 -0.0147534 0)
(0.0620578 -0.0111683 0)
(0.0717058 -0.00801836 0)
(0.078843 -0.00534564 0)
(0.0838484 -0.00316916 0)
(0.0871753 -0.00150539 0)
(0.0894328 -0.000314846 0)
(0.0909866 0.000468274 0)
(0.0921511 0.000936733 0)
(0.0929576 0.00117965 0)
(0.0935608 0.00126051 0)
(0.0938923 0.00123777 0)
(0.0941103 0.00114398 0)
(0.0941175 0.00102198 0)
(0.0940934 0.000877631 0)
(0.0939248 0.000746681 0)
(0.0937917 0.000611967 0)
(0.0935746 0.000511383 0)
(0.0934201 0.000402679 0)
(0.0932358 0.000338149 0)
(0.0930927 0.000251676 0)
(0.0929858 0.00022008 0)
(0.092844 0.000148981 0)
(0.000165924 -0.00599316 0)
(-0.020521 0.0141693 0)
(-0.0385805 0.0471477 0)
(-0.0603578 0.0582632 0)
(-0.0725665 0.054107 0)
(-0.0882425 0.0427662 0)
(-0.100957 0.0303209 0)
(-0.101875 0.00951526 0)
(-0.0961622 -0.00972692 0)
(-0.0827014 -0.0256341 0)
(-0.0677026 -0.03523 0)
(-0.0470328 -0.0415623 0)
(-0.0284217 -0.0446178 0)
(-0.00686224 -0.0443792 0)
(0.0124365 -0.0409786 0)
(0.030058 -0.0357434 0)
(0.0455903 -0.0297666 0)
(0.058372 -0.023669 0)
(0.0686522 -0.0180802 0)
(0.0772148 -0.0130541 0)
(0.0841902 -0.00869398 0)
(0.0893079 -0.00525705 0)
(0.0925105 -0.00288337 0)
(0.0944752 -0.0014155 0)
(0.0958226 -0.000561179 0)
(0.0970784 -6.91804e-05 0)
(0.0982518 0.000211508 0)
(0.0994588 0.000370177 0)
(0.10049 0.000457379 0)
(0.101451 0.00049615 0)
(0.102143 0.000516088 0)
(0.102748 0.000503634 0)
(0.103094 0.000490429 0)
(0.103409 0.00044409 0)
(0.103523 0.000413235 0)
(0.103664 0.000346302 0)
(0.103667 0.00031399 0)
(0.103729 0.000238839 0)
(0.103704 0.00021788 0)
(0.103731 0.000144879 0)
(0.00289728 0.000857235 0)
(-0.0165406 0.0305258 0)
(-0.0198698 0.0464189 0)
(-0.0378165 0.062061 0)
(-0.045262 0.0545253 0)
(-0.0559168 0.0468589 0)
(-0.0611666 0.0320564 0)
(-0.0576572 0.00709518 0)
(-0.0513206 -0.017563 0)
(-0.0396842 -0.0356778 0)
(-0.0263498 -0.0471443 0)
(-0.0110608 -0.0544945 0)
(0.00644247 -0.0579695 0)
(0.0218817 -0.0571323 0)
(0.0365264 -0.0527878 0)
(0.048589 -0.0463419 0)
(0.0594757 -0.0389047 0)
(0.0690295 -0.031135 0)
(0.0757683 -0.0245154 0)
(0.0807985 -0.0190235 0)
(0.0859684 -0.0138387 0)
(0.0913557 -0.00894187 0)
(0.0956771 -0.00506542 0)
(0.0983663 -0.00260289 0)
(0.0996501 -0.00135495 0)
(0.100326 -0.000805749 0)
(0.100792 -0.000558184 0)
(0.101415 -0.000391958 0)
(0.102055 -0.000238341 0)
(0.10281 -9.33039e-05 0)
(0.103419 4.43558e-05 0)
(0.104027 0.000145729 0)
(0.104411 0.000233842 0)
(0.104794 0.000270563 0)
(0.104972 0.000305256 0)
(0.105195 0.000283209 0)
(0.105251 0.000282981 0)
(0.105389 0.00022112 0)
(0.105394 0.000210902 0)
(0.105497 0.000129311 0)
(-0.00191138 0.00440174 0)
(-0.0118086 0.028774 0)
(-0.0195628 0.0550905 0)
(-0.0167437 0.0716556 0)
(-0.0136509 0.0671073 0)
(-0.0155913 0.0560361 0)
(-0.0148011 0.0343997 0)
(-0.00829824 0.00603546 0)
(-0.00343333 -0.0218321 0)
(0.00141577 -0.0429772 0)
(0.00734566 -0.056185 0)
(0.0196425 -0.0645998 0)
(0.03321 -0.0673698 0)
(0.0465879 -0.0662445 0)
(0.0579372 -0.0603349 0)
(0.0658578 -0.052423 0)
(0.0709883 -0.0446329 0)
(0.0776261 -0.0353066 0)
(0.0834984 -0.0261994 0)
(0.0855292 -0.0200934 0)
(0.0859624 -0.0161223 0)
(0.08798 -0.0122052 0)
(0.091783 -0.00802681 0)
(0.0959842 -0.00442215 0)
(0.0992228 -0.00207831 0)
(0.101245 -0.000936396 0)
(0.102228 -0.000576184 0)
(0.102791 -0.000531717 0)
(0.103139 -0.000526593 0)
(0.103581 -0.000462715 0)
(0.103954 -0.000333212 0)
(0.104408 -0.000190349 0)
(0.104702 -4.46311e-05 0)
(0.105033 4.73107e-05 0)
(0.105176 0.000124349 0)
(0.105382 0.000136503 0)
(0.105422 0.000162966 0)
(0.105561 0.000122696 0)
(0.10556 0.000127437 0)
(0.105673 6.26688e-05 0)
(0.00567005 0.0103933 0)
(0.0073887 0.0481159 0)
(0.0217492 0.0519414 0)
(0.0246619 0.0633226 0)
(0.0282112 0.0549256 0)
(0.0308321 0.0444691 0)
(0.0359126 0.025112 0)
(0.0419082 -0.00100811 0)
(0.0455953 -0.0256004 0)
(0.0454548 -0.044282 0)
(0.0460753 -0.0605662 0)
(0.0491878 -0.0733769 0)
(0.0589882 -0.0777468 0)
(0.0683485 -0.0746536 0)
(0.0751849 -0.0659388 0)
(0.0806416 -0.0547623 0)
(0.0807899 -0.0469769 0)
(0.080679 -0.0402101 0)
(0.0853712 -0.0302227 0)
(0.089787 -0.0205423 0)
(0.0897322 -0.0151573 0)
(0.0878311 -0.0127126 0)
(0.0876519 -0.0105362 0)
(0.0901061 -0.00777591 0)
(0.0939406 -0.00502562 0)
(0.0977961 -0.00290015 0)
(0.100682 -0.00163302 0)
(0.102561 -0.00103319 0)
(0.103549 -0.000805443 0)
(0.104148 -0.000691163 0)
(0.104448 -0.00055983 0)
(0.104757 -0.000398554 0)
(0.104922 -0.000214121 0)
(0.105155 -6.75902e-05 0)
(0.105243 6.60737e-05 0)
(0.105416 0.000119992 0)
(0.105442 0.000171245 0)
(0.105571 0.000134974 0)
(0.105568 0.000142228 0)
(0.105679 5.04261e-05 0)
(-0.0489803 -0.00618128 0)
(0.00599072 0.0133248 0)
(0.0123829 0.0391227 0)
(0.0519595 0.0640235 0)
(0.0700024 0.0641281 0)
(0.0821878 0.0539355 0)
(0.0888238 0.0309674 0)
(0.0941945 0.00170592 0)
(0.095258 -0.0219669 0)
(0.0915106 -0.0404205 0)
(0.0888479 -0.0574061 0)
(0.090959 -0.0734732 0)
(0.0933358 -0.0817606 0)
(0.0952784 -0.0791119 0)
(0.0943429 -0.0696324 0)
(0.0947951 -0.0556165 0)
(0.0943431 -0.0432805 0)
(0.0887631 -0.037536 0)
(0.0853208 -0.0322075 0)
(0.0877787 -0.0231672 0)
(0.0908225 -0.0148095 0)
(0.0907804 -0.0106658 0)
(0.0890537 -0.00958638 0)
(0.0884422 -0.00893481 0)
(0.0899229 -0.00759893 0)
(0.0930376 -0.00574701 0)
(0.0965889 -0.00396714 0)
(0.0998099 -0.00257756 0)
(0.102136 -0.0016624 0)
(0.103682 -0.00110598 0)
(0.104492 -0.0007646 0)
(0.10498 -0.000530886 0)
(0.10516 -0.000336198 0)
(0.105338 -0.000194942 0)
(0.105363 -7.28849e-05 0)
(0.105469 -2.38439e-05 0)
(0.105451 3.34465e-05 0)
(0.105544 1.19932e-05 0)
(0.105523 3.31183e-05 0)
(0.105616 -2.87929e-05 0)
(0.115716 0.0410839 0)
(0.0808359 0.0134629 0)
(0.052523 0.0159583 0)
(0.0654927 0.0259662 0)
(0.0833072 0.0314369 0)
(0.102621 0.0303981 0)
(0.116764 0.01702 0)
(0.124975 -0.00373609 0)
(0.127082 -0.0232326 0)
(0.124049 -0.0403018 0)
(0.121419 -0.0593359 0)
(0.121901 -0.0755703 0)
(0.121221 -0.0812321 0)
(0.115528 -0.076292 0)
(0.107239 -0.0666806 0)
(0.100396 -0.0561416 0)
(0.0992721 -0.0436812 0)
(0.0979863 -0.0338235 0)
(0.0929529 -0.0288241 0)
(0.0896253 -0.023803 0)
(0.0906175 -0.0169879 0)
(0.0930959 -0.0112941 0)
(0.0943956 -0.00868086 0)
(0.0943068 -0.00824918 0)
(0.0938821 -0.00828561 0)
(0.0942315 -0.00773008 0)
(0.0955871 -0.00654421 0)
(0.09776 -0.00504649 0)
(0.100082 -0.00360947 0)
(0.102183 -0.00241093 0)
(0.10366 -0.00151466 0)
(0.104647 -0.000889327 0)
(0.105107 -0.000463838 0)
(0.105378 -0.000198723 0)
(0.105419 -1.11645e-05 0)
(0.10551 7.08448e-05 0)
(0.105488 0.000137688 0)
(0.105565 9.8487e-05 0)
(0.105549 0.000105251 0)
(0.105627 -1.24905e-05 0)
(0.144592 0.0406996 0)
(0.143007 0.0450443 0)
(0.126649 0.0469854 0)
(0.122842 0.0395187 0)
(0.122964 0.0318518 0)
(0.130402 0.0254471 0)
(0.141146 0.0127727 0)
(0.149731 -0.00528618 0)
(0.152613 -0.0221135 0)
(0.153042 -0.0373563 0)
(0.152801 -0.0553373 0)
(0.146219 -0.0722226 0)
(0.135938 -0.0773183 0)
(0.124695 -0.0692875 0)
(0.112459 -0.0569614 0)
(0.102124 -0.0478127 0)
(0.0964641 -0.0408948 0)
(0.095844 -0.0334452 0)
(0.0961501 -0.0267671 0)
(0.0951327 -0.0217068 0)
(0.0944433 -0.0173691 0)
(0.0955637 -0.0134665 0)
(0.0980958 -0.0105341 0)
(0.100856 -0.00858589 0)
(0.102589 -0.00743013 0)
(0.102869 -0.00678891 0)