/*--------------------------------*- C++ -*----------------------------------*\
| =========                 |                                                 |
| \\      /  F ield         | OpenFOAM: The Open Source CFD Toolbox           |
|  \\    /   O peration     | Version:  2112                                  |
|   \\  /    A nd           | Website:  www.openfoam.com                      |
|    \\/     M anipulation  |                                                 |
\*---------------------------------------------------------------------------*/
FoamFile
{
    version     2.0;
    format      ascii;
    arch        "LSB;label=32;scalar=64";
    class       volScalarField;
    location    "0.04";
    object      nut;
}
// * * * * * * * * * * * * * * * * * * * * * * * * * * * * * * * * * * * * * //

dimensions      [0 2 -1 0 0 0 0];

internalField   nonuniform List<scalar> 
1880
(
9.10858e-11
1.59393e-10
2.05435e-11
4.42212e-12
6.51711e-12
4.30905e-13
3.40287e-13
3.75566e-14
1.85337e-15
2.36965e-16
1.57044e-18
6.9353e-18
2.69246e-17
8.09283e-17
1.8848e-16
4.02585e-16
8.07529e-16
1.63872e-15
3.31735e-15
7.30074e-15
1.45566e-14
4.31656e-14
7.18066e-14
4.38206e-13
4.48815e-13
8.1691e-12
1.20217e-11
3.15321e-10
1.27061e-09
1.89628e-08
3.09021e-08
7.41343e-08
1.81294e-08
4.82157e-09
8.67696e-09
1.00885e-09
3.03816e-10
4.5172e-11
4.48686e-12
3.69158e-13
5.82093e-15
2.39749e-13
9.78006e-13
2.61355e-12
5.77498e-12
1.19638e-11
2.41467e-11
4.86036e-11
9.73587e-11
2.03001e-10
3.99114e-10
9.05513e-10
1.56613e-09
4.14302e-09
5.33583e-09
1.5768e-08
1.68163e-08
4.07654e-08
5.12157e-08
8.79716e-08
2.48414e-08
6.56875e-08
9.35631e-09
1.15717e-08
2.24716e-08
6.2582e-09
8.86538e-09
3.6448e-09
8.50436e-10
9.30535e-10
1.10471e-09
1.31182e-09
1.52496e-09
1.80246e-09
2.14079e-09
2.54517e-09
3.03245e-09
3.62694e-09
4.34896e-09
5.25496e-09
6.3445e-09
7.82422e-09
9.44286e-09
1.21724e-08
1.42873e-08
2.01356e-08
2.15802e-08
3.41476e-08
3.86565e-08
5.12517e-08
2.96342e-08
6.55347e-08
2.0396e-08
1.13534e-08
2.43445e-08
8.09577e-09
7.71917e-09
3.22031e-09
1.20359e-09
1.06985e-09
1.07958e-09
1.27412e-09
1.48057e-09
1.74377e-09
2.06405e-09
2.44991e-09
2.91305e-09
3.47673e-09
4.15721e-09
5.01417e-09
6.01633e-09
7.41138e-09
8.83941e-09
1.13844e-08
1.32975e-08
1.80888e-08
1.99773e-08
2.82258e-08
3.2013e-08
4.55956e-08
3.03663e-08
6.3638e-08
2.20641e-08
6.76911e-09
2.32456e-08
6.88544e-09
8.16591e-09
3.82968e-09
9.85017e-10
8.72049e-10
8.94441e-10
1.12885e-09
1.36291e-09
1.6477e-09
1.98044e-09
2.36987e-09
2.83007e-09
3.38255e-09
4.04242e-09
4.85968e-09
5.81575e-09
7.09192e-09
8.47316e-09
1.06187e-08
1.26548e-08
1.61456e-08
1.84937e-08
2.38592e-08
2.89907e-08
3.3479e-08
3.10601e-08
6.31995e-08
2.58469e-08
9.51563e-09
2.37784e-08
7.42148e-09
7.17818e-09
3.62189e-09
1.05102e-09
8.59489e-10
7.52875e-10
1.01903e-09
1.2756e-09
1.57197e-09
1.91008e-09
2.29909e-09
2.75298e-09
3.2908e-09
3.927e-09
4.70049e-09
5.60822e-09
6.76585e-09
8.09794e-09
9.88247e-09
1.19967e-08
1.4523e-08
1.71637e-08
2.0125e-08
2.54086e-08
2.89274e-08
3.13373e-08
6.25836e-08
2.69274e-08
1.02509e-08
2.36783e-08
7.25217e-09
5.88847e-09
2.9454e-09
9.6022e-10
8.44809e-10
6.94093e-10
9.63712e-10
1.22629e-09
1.52357e-09
1.8593e-09
2.24194e-09
2.68494e-09
3.20351e-09
3.81177e-09
4.53878e-09
5.39961e-09
6.43557e-09
7.70794e-09
9.16864e-09
1.12741e-08
1.30963e-08
1.58417e-08
1.7615e-08
2.22827e-08
2.4918e-08
3.14993e-08
6.23021e-08
2.76956e-08
1.1118e-08
2.37718e-08
7.33052e-09
4.66258e-09
2.13095e-09
1.07268e-09
8.81898e-10
7.17069e-10
9.6455e-10
1.21837e-09
1.50587e-09
1.83183e-09
2.20193e-09
2.62721e-09
3.12212e-09
3.70248e-09
4.38395e-09
5.19417e-09
6.11769e-09
7.32335e-09
8.5205e-09
1.05749e-08
1.18449e-08
1.46128e-08
1.55611e-08
1.97356e-08
2.19279e-08
3.15697e-08
6.21451e-08
2.80068e-08
1.14121e-08
2.38811e-08
7.30751e-09
3.94769e-09
2.62657e-09
1.0809e-09
9.58217e-10
7.97352e-10
1.00898e-09
1.24534e-09
1.51726e-09
1.82404e-09
2.17427e-09
2.58024e-09
3.05197e-09
3.60233e-09
4.2368e-09
4.99458e-09
5.82349e-09
6.9545e-09
7.94495e-09
9.8838e-09
1.07941e-08
1.34493e-08
1.39673e-08
1.74315e-08
1.94537e-08
3.1593e-08
6.21106e-08
2.80299e-08
1.13689e-08
2.39991e-08
7.27748e-09
3.88814e-09
3.33261e-09
1.1534e-09
1.05821e-09
9.04284e-10
1.08179e-09
1.29508e-09
1.54276e-09
1.82793e-09
2.15982e-09
2.5456e-09
2.99075e-09
3.50837e-09
4.09922e-09
4.80789e-09
5.56068e-09
6.60728e-09
7.4494e-09
9.21808e-09
9.91337e-09
1.23499e-08
1.26767e-08
1.54932e-08
1.73691e-08
3.15758e-08
6.2158e-08
2.7826e-08
1.10117e-08
2.41478e-08
7.25813e-09
4.37869e-09
3.62929e-09
1.25185e-09
1.17613e-09
1.01492e-09
1.1606e-09
1.35025e-09
1.57621e-09
1.84158e-09
2.15342e-09
2.51619e-09
2.93474e-09
3.42213e-09
3.97477e-09
4.63648e-09
5.32587e-09
6.28462e-09
7.02463e-09
8.59793e-09
9.17246e-09
1.13383e-08
1.16211e-08
1.38552e-08
1.55897e-08
3.15254e-08
6.2283e-08
2.73739e-08
1.03666e-08
2.42902e-08
7.20413e-09
5.15919e-09
3.68736e-09
1.35445e-09
1.2852e-09
1.11239e-09
1.23344e-09
1.40261e-09
1.60875e-09
1.85483e-09
2.14654e-09
2.48803e-09
2.884e-09
3.34445e-09
3.86332e-09
4.4801e-09
5.11763e-09
5.99074e-09
6.66458e-09
8.04001e-09
8.56566e-09
1.04285e-08
1.07604e-08
1.24965e-08
1.40863e-08
3.14192e-08
6.25239e-08
2.66714e-08
9.55635e-09
2.44782e-08
7.24174e-09
6.04024e-09
3.61934e-09
1.44848e-09
1.37202e-09
1.18758e-09
1.28913e-09
1.44201e-09
1.63168e-09
1.86157e-09
2.13659e-09
2.46004e-09
2.83591e-09
3.27195e-09
3.76188e-09
4.33931e-09
4.9365e-09
5.73021e-09
6.36049e-09
7.54925e-09
8.06611e-09
9.63299e-09
1.00432e-08
1.14024e-08
1.28369e-08
3.12218e-08
6.28675e-08
2.54047e-08
8.44475e-09
2.44609e-08
7.03299e-09
6.8257e-09
3.64425e-09
1.50137e-09
1.42268e-09
1.23365e-09
1.31977e-09
1.46094e-09
1.63909e-09
1.8569e-09
2.11941e-09
2.42955e-09
2.78926e-09
3.20472e-09
3.67066e-09
4.21367e-09
4.77862e-09
5.50244e-09
6.10589e-09
7.13067e-09
7.65783e-09
8.96296e-09
9.44359e-09
1.05304e-08
1.18016e-08
3.08995e-08
6.3593e-08
2.41298e-08
8.45695e-09
2.49096e-08
7.28516e-09
7.44194e-09
3.39046e-09
1.58557e-09
1.46281e-09
1.24521e-09
1.31936e-09
1.45451e-09
1.62719e-09
1.83882e-09
2.09414e-09
2.39578e-09
2.74382e-09
3.14279e-09
3.58963e-09
4.10387e-09
4.64391e-09
5.3087e-09
5.89441e-09
6.78153e-09
7.32765e-09
8.41175e-09
8.94531e-09
9.83983e-09
1.09476e-08
3.0143e-08
6.40095e-08
1.97198e-08
8.00882e-09
2.41624e-08
6.68761e-09
7.97821e-09
3.67842e-09
1.48016e-09
1.39404e-09
1.20562e-09
1.28126e-09
1.41933e-09
1.59501e-09
1.80777e-09
2.06164e-09
2.3585e-09
2.69889e-09
3.08637e-09
3.51922e-09
4.01055e-09
4.53165e-09
5.1476e-09
5.72194e-09
6.49863e-09
7.0641e-09
7.97331e-09
8.54145e-09
9.29586e-09
1.0252e-08
2.94181e-08
6.60542e-08
1.88778e-08
1.32191e-08
2.56721e-08
7.78524e-09
7.78415e-09
3.29078e-09
1.55809e-09
1.40545e-09
1.13066e-09
1.20829e-09
1.35907e-09
1.54486e-09
1.76461e-09
2.02258e-09
2.31945e-09
2.65616e-09
3.03629e-09
3.45929e-09
3.93316e-09
4.44033e-09
5.01813e-09
5.58556e-09
6.27729e-09
6.86038e-09
7.6311e-09
8.22898e-09
8.87304e-09
9.70819e-09
2.41513e-08
6.60177e-08
8.92912e-09
1.40856e-08
2.36621e-08
6.1893e-09
8.15896e-09
3.55508e-09
6.70242e-10
5.86947e-10
4.66623e-10
6.76774e-10
9.27929e-10
1.18561e-09
1.45672e-09
1.75231e-09
2.07692e-09
2.43421e-09
2.82881e-09
3.26166e-09
3.73752e-09
4.24835e-09
4.81142e-09
5.38466e-09
6.0288e-09
6.63084e-09
7.3139e-09
7.94444e-09
8.4811e-09
9.30614e-09
3.10752e-08
7.40816e-08
1.83725e-08
7.16364e-09
8.91891e-09
1.26872e-09
4.70191e-10
9.6325e-11
1.80359e-11
5.62519e-12
2.1672e-12
1.36933e-12
1.05665e-12
9.65937e-13
9.78997e-13
1.03827e-12
1.10163e-12
1.12205e-12
1.05988e-12
8.7919e-13
5.98027e-13
2.68008e-13
5.48768e-14
1.53317e-17
1.41788e-13
1.26304e-12
6.49438e-12
1.81767e-11
3.87899e-11
1.13035e-10
9.04279e-11
1.58961e-10
2.05387e-11
4.70387e-12
6.74364e-12
4.82842e-13
3.51234e-13
4.41198e-14
4.14064e-15
1.04423e-15
2.11818e-16
1.12267e-16
7.67962e-17
7.30953e-17
8.3237e-17
1.03398e-16
1.3311e-16
1.72824e-16
2.23441e-16
2.83416e-16
3.49146e-16
4.09255e-16
4.65545e-16
5.02362e-16
4.69481e-16
5.42025e-16
2.86033e-16
4.17854e-16
7.43165e-17
9.28472e-17
2.10233e-08
2.59792e-10
3.77384e-10
9.47359e-11
3.91944e-09
9.05143e-09
1.95914e-09
3.4378e-09
2.10039e-07
2.02225e-08
1.08974e-07
8.49442e-08
6.03686e-08
3.57464e-08
5.15663e-08
6.83762e-08
5.07611e-09
1.77738e-07
5.53703e-09
7.9555e-10
1.25841e-07
5.2946e-08
7.04457e-08
5.8909e-08
7.63271e-08
5.26521e-08
4.4146e-08
6.25037e-08
6.44985e-08
9.5019e-08
6.58525e-08
4.83799e-08
5.90587e-08
5.33249e-08
1.37718e-07
8.06735e-08
9.02944e-08
4.88056e-08
8.79032e-08
5.09631e-08
7.34491e-08
3.69474e-08
4.74847e-08
4.0635e-08
6.18657e-08
4.85447e-08
6.04629e-08
6.28235e-08
5.56717e-08
6.9768e-08
4.71505e-08
3.40971e-08
3.94576e-08
3.91179e-08
5.41461e-08
4.62696e-08
5.37723e-08
5.716e-08
6.1717e-08
5.3239e-08
4.31043e-08
2.84667e-08
3.16887e-08
3.22698e-08
3.67496e-08
3.66997e-08
4.20856e-08
4.60903e-08
3.98096e-08
4.8187e-08
3.36735e-08
2.58586e-08
3.02881e-08
2.92136e-08
3.40632e-08
3.51083e-08
3.22474e-08
4.02492e-08
3.7568e-08
3.76798e-08
2.92358e-08
2.24074e-08
2.7136e-08
2.6348e-08
2.71713e-08
2.80205e-08
2.94445e-08
2.98418e-08
2.85779e-08
2.91807e-08
2.42095e-08
2.01176e-08
2.61419e-08
2.37851e-08
2.3287e-08
2.44591e-08
2.4301e-08
2.54619e-08
2.42692e-08
2.36958e-08
2.03205e-08
1.78854e-08
2.33244e-08
2.09574e-08
2.01917e-08
2.06082e-08
2.09047e-08
2.03389e-08
1.95792e-08
1.86288e-08
1.68163e-08
1.60705e-08
2.06761e-08
1.85377e-08
1.75037e-08
1.77172e-08
1.77204e-08
1.72322e-08
1.61597e-08
1.53489e-08
1.41367e-08
1.45053e-08
1.78888e-08
1.62556e-08
1.53428e-08
1.52612e-08
1.50834e-08
1.43095e-08
1.32672e-08
1.23119e-08
1.22766e-08
1.31937e-08
1.55395e-08
1.43341e-08
1.35003e-08
1.32322e-08
1.28797e-08
1.20284e-08
1.09065e-08
1.00581e-08
1.10875e-08
1.20932e-08
1.36483e-08
1.27452e-08
1.19823e-08
1.15548e-08
1.10373e-08
1.00737e-08
8.9237e-09
8.03522e-09
1.03244e-08
1.11805e-08
1.21768e-08
1.14783e-08
1.07436e-08
1.01852e-08
9.52658e-09
8.47069e-09
7.26328e-09
6.3637e-09
9.82091e-09
1.04484e-08
1.10654e-08
1.05161e-08
9.77567e-09
9.10958e-09
8.33027e-09
7.21231e-09
5.91267e-09
5.00727e-09
9.40965e-09
9.79924e-09
1.01605e-08
9.79102e-09
9.09182e-09
8.33231e-09
7.4311e-09
6.19947e-09
4.8747e-09
3.53127e-09
1.36337e-10
2.10552e-10
3.42766e-10
3.68554e-10
2.86489e-10
2.41045e-10
1.84747e-10
1.72459e-10
9.62776e-11
8.76617e-11
5.49256e-16
5.06255e-15
8.53423e-15
8.92209e-15
7.42114e-15
7.24164e-15
9.04312e-15
1.10661e-14
1.13595e-14
9.29777e-15
8.52884e-08
1.08229e-09
3.71315e-09
7.07159e-08
6.96673e-08
1.29026e-08
1.98411e-09
3.30589e-10
6.37804e-11
1.37314e-11
3.23392e-12
8.31804e-13
2.34927e-13
7.31839e-14
2.50935e-14
9.38874e-15
3.80232e-15
1.65183e-15
7.59499e-16
3.66286e-16
1.84756e-16
9.66044e-17
5.16776e-17
2.82169e-17
1.57879e-17
9.00642e-18
5.19589e-18
3.03205e-18
1.79182e-18
1.07168e-18
6.44107e-19
3.94173e-19
2.41122e-19
1.48299e-19
1.00036e-19
5.04681e-20
5.26413e-20
1.68903e-20
1.701e-20
1.76017e-20
9.70825e-09
1.08678e-07
9.2086e-08
1.14801e-07
1.27213e-07
1.1522e-07
9.55537e-08
7.21786e-08
5.03594e-08
3.17326e-08
1.75655e-08
8.45502e-09
3.61414e-09
1.43372e-09
5.53018e-10
2.1483e-10
8.58949e-11
3.57367e-11
1.55188e-11
7.03037e-12
3.31634e-12
1.62178e-12
8.17509e-13
4.23502e-13
2.25326e-13
1.22828e-13
6.82909e-14
3.85928e-14
2.21164e-14
1.28228e-14
7.52077e-15
4.4644e-15
2.71455e-15
1.62372e-15
1.1006e-15
5.53426e-16
5.4824e-16
1.88521e-16
1.88018e-16
1.21565e-16
2.04352e-07
1.36563e-07
1.18808e-07
1.41175e-07
1.52631e-07
1.2985e-07
1.04051e-07
7.82228e-08
5.77188e-08
4.24785e-08
3.15669e-08
2.38403e-08
1.83237e-08
1.43105e-08
1.13234e-08
9.04712e-09
7.27287e-09
5.86039e-09
4.7142e-09
3.76877e-09
2.97917e-09
2.31552e-09
1.75919e-09
1.29918e-09
9.28344e-10
6.3977e-10
4.24602e-10
2.71556e-10
1.67848e-10
1.00712e-10
5.90975e-11
3.41094e-11
1.96901e-11
1.10829e-11
6.80102e-12
3.30183e-12
2.803e-12
9.44613e-13
9.30655e-13
4.85528e-13
3.59357e-08
1.32966e-07
3.56817e-08
5.85951e-08
1.43123e-07
1.43852e-07
1.15076e-07
8.38156e-08
5.97731e-08
4.27818e-08
3.11974e-08
2.3304e-08
1.78117e-08
1.38809e-08
1.09893e-08
8.81063e-09
7.13581e-09
5.82749e-09
4.79203e-09
3.96339e-09
3.29381e-09
2.74827e-09
2.30077e-09
1.93168e-09
1.62587e-09
1.37141e-09
1.15882e-09
9.80512e-10
8.30409e-10
7.03556e-10
5.96285e-10
5.0509e-10
4.28256e-10
3.61201e-10
3.07742e-10
2.51578e-10
2.23742e-10
1.57043e-10
1.48496e-10
5.1752e-11
3.24705e-08
2.25694e-06
4.31396e-07
4.34272e-10
5.04019e-08
1.2105e-07
1.20793e-07
8.93116e-08
6.13555e-08
4.23745e-08
3.02721e-08
2.24454e-08
1.71582e-08
1.34194e-08
1.06727e-08
8.59473e-09
6.98769e-09
5.7243e-09
4.71869e-09
3.91e-09
3.25382e-09
2.71738e-09
2.27625e-09
1.91169e-09
1.60912e-09
1.35702e-09
1.14624e-09
9.69352e-10
8.20442e-10
6.94693e-10
5.88518e-10
4.98446e-10
4.22691e-10
3.57031e-10
3.04153e-10
2.51288e-10
2.20319e-10
1.55725e-10
1.41173e-10
3.40936e-11
1.82107e-08
5.90703e-06
3.08648e-06
1.80455e-09
3.49356e-08
7.68972e-08
1.05892e-07
9.12653e-08
6.2129e-08
4.11587e-08
2.8696e-08
2.11844e-08
1.62828e-08
1.28393e-08
1.02924e-08
8.34427e-09
6.82112e-09
5.61224e-09
4.64238e-09
3.85753e-09
3.21749e-09
2.6921e-09
2.25859e-09
1.89936e-09
1.60055e-09
1.35111e-09
1.14221e-09
9.66691e-10
8.18833e-10
6.9395e-10
5.88491e-10
4.99014e-10
4.23791e-10
3.58502e-10
3.06418e-10
2.53342e-10
2.24135e-10
1.61316e-10
1.48417e-10
4.72455e-11
1.68396e-07
1.93995e-06
3.36677e-06
7.46104e-08
1.89871e-07
1.69505e-07
1.28132e-07
9.94882e-08
6.89574e-08
4.39365e-08
2.8621e-08
2.02458e-08
1.54086e-08
1.22121e-08
9.87153e-09
8.06448e-09
6.6336e-09
5.4851e-09
4.55525e-09
3.79726e-09
3.17546e-09
2.66265e-09
2.23794e-09
1.88492e-09
1.59048e-09
1.34413e-09
1.13746e-09
9.6362e-10
8.17044e-10
6.93168e-10
5.88523e-10
4.99738e-10
4.25153e-10
3.60309e-10
3.09154e-10
2.55815e-10
2.28658e-10
1.67425e-10
1.56361e-10
6.4489e-11
1.70827e-06
5.80065e-06
1.44391e-08
4.29574e-08
2.99573e-06
2.41493e-06
1.9029e-07
1.04349e-08
3.03451e-08
2.65046e-08
2.01315e-08
1.6378e-08
1.38898e-08
1.17083e-08
9.76822e-09
8.11453e-09
6.74055e-09
5.60993e-09
4.68101e-09
3.91633e-09
3.28471e-09
2.76103e-09
2.32542e-09
1.96199e-09
1.65796e-09
1.40299e-09
1.18869e-09
1.00814e-09
8.55722e-10
7.26823e-10
6.17902e-10
5.25484e-10
4.47888e-10
3.803e-10
3.27597e-10
2.71336e-10
2.45025e-10
1.82113e-10
1.72253e-10
8.79226e-11
7.87277e-08
1.58208e-07
6.2551e-07
3.02323e-07
1.48849e-07
9.01687e-08
7.2862e-08
7.04355e-08
5.64774e-08
3.71988e-08
2.38622e-08
1.72523e-08
1.3711e-08
1.13026e-08
9.39413e-09
7.82414e-09
6.52825e-09
5.45832e-09
4.57355e-09
3.84022e-09
3.23079e-09
2.72285e-09
2.29838e-09
1.94285e-09
1.64449e-09
1.39362e-09
1.18229e-09
1.00391e-09
8.53134e-10
7.2554e-10
6.17662e-10
5.26098e-10
4.49231e-10
3.82166e-10
3.30487e-10
2.74019e-10
2.49849e-10
1.88001e-10
1.79593e-10
1.07438e-10
1.13668e-07
1.03018e-07
1.41153e-07
1.7748e-06
3.59043e-08
1.29721e-07
1.52996e-07
9.95313e-08
6.40672e-08
4.11783e-08
2.58104e-08
1.73697e-08
1.32306e-08
1.0791e-08
8.98465e-09
7.5213e-09
6.30991e-09
5.30213e-09
4.46202e-09
3.76052e-09
3.17376e-09
2.68205e-09
2.2692e-09
1.92201e-09
1.62967e-09
1.38316e-09
1.175e-09
9.98967e-10
8.49968e-10
7.23771e-10
6.16983e-10
5.26294e-10
4.50175e-10
3.83661e-10
3.32979e-10
2.76366e-10
2.54116e-10
1.9299e-10
1.85711e-10
1.23611e-10
1.08426e-07
1.31109e-07
2.01403e-07
4.45231e-09
1.86547e-07
2.68921e-08
5.97208e-08
8.19074e-08
6.14229e-08
3.41957e-08
1.9228e-08
1.41565e-08
1.18249e-08
1.00652e-08
8.53554e-09
7.21541e-09
6.09351e-09
5.14701e-09
4.35039e-09
3.6801e-09
3.11579e-09
2.64027e-09
2.23913e-09
1.90042e-09
1.61422e-09
1.37218e-09
1.16727e-09
9.93647e-10
8.46471e-10
7.21679e-10
6.15964e-10
5.26131e-10
4.50732e-10
3.84764e-10
3.34973e-10
2.78269e-10
2.57637e-10
1.96971e-10
1.9055e-10
1.35851e-10
1.34366e-07
6.62167e-08
1.52243e-07
1.19563e-07
3.10957e-08
7.90597e-08
8.48427e-08
6.34413e-08
4.4306e-08
2.90318e-08
1.94299e-08
1.44353e-08
1.16501e-08
9.72564e-09
8.20714e-09
6.94922e-09
5.89106e-09
4.99693e-09
4.2404e-09
3.59992e-09
3.05749e-09
2.59793e-09
2.20843e-09
1.87823e-09
1.59823e-09
1.36071e-09
1.15911e-09
9.87936e-10
8.42592e-10
7.19188e-10
6.14517e-10
5.25516e-10
4.50798e-10
3.85357e-10
3.36313e-10
2.79582e-10
2.60213e-10
1.99827e-10
1.94029e-10
1.44278e-10
6.02283e-08
9.7921e-08
1.00763e-07
6.43141e-08
4.87593e-08
6.88014e-08
6.01481e-08
4.43106e-08
2.96884e-08
1.96658e-08
1.48897e-08
1.247e-08
1.06828e-08
9.1497e-09
7.81939e-09
6.67298e-09
5.69003e-09
4.84968e-09
4.13246e-09
3.52089e-09
2.99968e-09
2.55568e-09
2.17762e-09
1.85582e-09
1.58198e-09
1.34896e-09
1.15065e-09
9.81903e-10
8.38363e-10
7.16307e-10
6.12638e-10
5.24427e-10
4.5033e-10
3.85373e-10
3.36902e-10
2.80212e-10
2.61718e-10
2.01483e-10
1.96103e-10
1.49251e-10
7.42931e-08
3.40061e-08
7.27332e-08
7.24152e-08
4.73888e-08
3.73046e-08
3.53796e-08
2.7961e-08
2.16506e-08
1.71654e-08
1.41465e-08
1.19514e-08
1.02013e-08
8.73874e-09
7.49234e-09
6.42217e-09
5.50132e-09
4.70912e-09
4.02836e-09
3.44406e-09
2.9431e-09
2.51409e-09
2.14713e-09
1.83353e-09
1.5657e-09
1.33707e-09
1.14199e-09
9.75615e-10
8.33824e-10
7.13061e-10
6.10337e-10
5.22858e-10
4.49301e-10
3.8477e-10
3.36677e-10
2.80103e-10
2.62077e-10
2.01897e-10
1.96743e-10
1.51044e-10
3.63356e-08
4.32214e-08
4.15632e-08
3.43365e-08
3.01697e-08
2.92156e-08
2.69108e-08
2.23727e-08
1.80403e-08
1.50321e-08
1.28578e-08
1.10999e-08
9.60196e-09
8.30188e-09
7.16843e-09
6.18057e-09
5.32107e-09
4.57492e-09
3.92865e-09
3.37011e-09
2.88837e-09
2.47369e-09
2.11738e-09
1.81165e-09
1.54961e-09
1.32522e-09
1.13325e-09
9.69159e-10
8.29038e-10
7.09493e-10
6.07646e-10
5.20826e-10
4.47713e-10
3.83542e-10
3.35625e-10
2.7924e-10
2.61269e-10
2.01052e-10
1.95936e-10
1.49772e-10
4.16911e-08
2.9147e-08
2.81947e-08
3.20985e-08
2.73947e-08
2.38157e-08
2.06151e-08
1.78085e-08
1.55815e-08
1.36556e-08
1.19381e-08
1.0422e-08
9.08747e-09
7.91022e-09
6.87132e-09
5.95618e-09
5.15237e-09
4.44858e-09
3.8343e-09
3.2998e-09
2.83611e-09
2.43495e-09
2.08871e-09
1.79045e-09
1.53391e-09
1.31356e-09
1.12455e-09
9.62632e-10
8.2408e-10
7.05667e-10
6.04614e-10
5.18371e-10
4.45599e-10
3.81717e-10
3.33778e-10
2.77652e-10
2.59326e-10
1.98958e-10
1.93686e-10
1.45372e-10
2.30222e-08
2.36478e-08
2.36835e-08
2.23435e-08
2.09069e-08
1.97561e-08
1.78694e-08
1.59047e-08
1.41385e-08
1.25452e-08
1.10955e-08
9.78505e-09
8.60556e-09
7.5455e-09
6.59549e-09
5.74792e-09
4.9955e-09
4.3307e-09
3.74593e-09
3.23372e-09
2.78683e-09
2.39828e-09
2.06145e-09
1.77017e-09
1.51879e-09
1.30225e-09
1.11603e-09
9.56137e-10
8.19039e-10
7.01659e-10
6.01312e-10
5.15559e-10
4.43025e-10
3.7936e-10
3.31207e-10
2.75403e-10
2.56324e-10
1.9565e-10
1.90009e-10
1.3762e-10
2.4212e-08
2.08424e-08
1.72937e-08
1.80462e-08
1.75049e-08
1.68125e-08
1.55266e-08
1.41009e-08
1.27836e-08
1.15331e-08
1.03358e-08
9.21084e-09
8.16955e-09
7.21406e-09
6.34387e-09
5.5573e-09
4.85142e-09
4.22206e-09
3.66422e-09
3.17243e-09
2.74098e-09
2.36405e-09
2.03589e-09
1.75106e-09
1.50446e-09
1.29144e-09
1.1078e-09
9.49781e-10
8.1401e-10
6.97558e-10
5.97826e-10
5.12475e-10
4.40081e-10
3.76565e-10
3.28025e-10
2.72591e-10
2.52391e-10
1.91184e-10
1.84937e-10
1.26187e-10
1.59728e-08
1.55425e-08
1.45506e-08
1.51979e-08
1.47362e-08
1.43838e-08
1.3604e-08
1.26256e-08
1.16475e-08
1.06593e-08
9.66697e-09
8.69989e-09
7.77927e-09
6.91623e-09
6.11704e-09
5.38497e-09
4.7208e-09
4.12328e-09
3.58972e-09
3.11641e-09
2.69895e-09
2.33255e-09
2.01228e-09
1.73332e-09
1.49108e-09
1.28128e-09
1.1e-09
9.43674e-10
8.09097e-10
6.93468e-10
5.94258e-10
5.09225e-10
4.36882e-10
3.73451e-10
3.24377e-10
2.69347e-10
2.47699e-10
1.8564e-10
1.78513e-10
1.10871e-10
1.4289e-08
1.33701e-08
1.15361e-08
1.23009e-08
1.24026e-08
1.24232e-08
1.20226e-08
1.13846e-08
1.06766e-08
9.90408e-09
9.08388e-09
8.25157e-09
7.43528e-09
6.65278e-09
5.91575e-09
5.23157e-09
4.60419e-09
4.03488e-09
3.5229e-09
3.06604e-09
2.66106e-09
2.30406e-09
1.99084e-09
1.71715e-09
1.47883e-09
1.27192e-09
1.09274e-09
9.37928e-10
8.04409e-10
6.89498e-10
5.90721e-10
5.05925e-10
4.33558e-10
3.70158e-10
3.20438e-10
2.65829e-10
2.42464e-10
1.79134e-10
1.70813e-10
9.21273e-11
1.09331e-08
1.07158e-08
9.44224e-09
1.02773e-08
1.06037e-08
1.08518e-08
1.07309e-08
1.03571e-08
9.86283e-09
9.26398e-09
8.58516e-09
7.86557e-09
7.13769e-09
6.42402e-09
5.74041e-09
5.09757e-09
4.50208e-09
3.95731e-09
3.46415e-09
3.02166e-09
2.62758e-09
2.27881e-09
1.97178e-09
1.70272e-09
1.46785e-09
1.26348e-09
1.08615e-09
9.32654e-10
8.00056e-10
6.85755e-10
5.87327e-10
5.02699e-10
4.30249e-10
3.66838e-10
3.16401e-10
2.62218e-10
2.36948e-10
1.7184e-10
1.61995e-10
7.16722e-11
8.79751e-09
8.75106e-09
7.67087e-09
8.56818e-09
9.14095e-09
9.58768e-09
9.68493e-09
9.51762e-09
9.19199e-09
8.73186e-09
8.16761e-09
7.54059e-09
6.8861e-09
6.23001e-09
5.59129e-09
4.98333e-09
4.41485e-09
3.89092e-09
3.41378e-09
2.98352e-09
2.59874e-09
2.25701e-09
1.95528e-09
1.69019e-09
1.45826e-09
1.25607e-09
1.08032e-09
9.27956e-10
7.96139e-10
6.82347e-10
5.84189e-10
4.99668e-10
4.27092e-10
3.63644e-10
3.12471e-10
2.58706e-10
2.31442e-10
1.64033e-10
1.52396e-10
5.23009e-11
6.78545e-09
6.92276e-09
6.23904e-09
7.20662e-09
7.985e-09
8.58987e-09
8.85608e-09
8.84844e-09
8.65355e-09
8.30185e-09
7.82822e-09
7.2752e-09
6.67983e-09
6.07043e-09
5.4683e-09
4.88885e-09
4.34252e-09
3.83571e-09
3.37173e-09
2.95155e-09
2.57444e-09
2.23853e-09
1.94119e-09
1.67939e-09
1.44991e-09
1.24952e-09
1.07508e-09
9.23666e-10
7.92499e-10
6.79119e-10
5.81163e-10
4.96707e-10
4.23988e-10
3.60497e-10
3.08596e-10
2.55268e-10
2.25948e-10
1.55772e-10
1.42146e-10
3.60423e-11
4.92259e-09
5.14825e-09
5.17098e-09
6.23743e-09
7.13996e-09
7.84566e-09
8.23101e-09
8.33743e-09
8.2362e-09
7.9632e-09
7.55638e-09
7.05866e-09
6.50797e-09
5.93422e-09
5.36029e-09
4.80303e-09
4.27404e-09
3.78074e-09
3.32721e-09
2.91506e-09
2.5441e-09
2.21285e-09
1.919e-09
1.65979e-09
1.4322e-09
1.23315e-09
1.05963e-09
9.08786e-10
7.77894e-10
6.64532e-10
5.66342e-10
4.8147e-10
4.07952e-10
3.43967e-10
2.89606e-10
2.37602e-10
2.00109e-10
1.2267e-10
1.0232e-10
1.07349e-11
3.28621e-09
3.56005e-09
3.93497e-09
5.08201e-09
6.13681e-09
6.87562e-09
7.26687e-09
7.37566e-09
7.2698e-09
6.98963e-09
6.57454e-09
6.06609e-09
5.50077e-09
4.90763e-09
4.30897e-09
3.72138e-09
3.15674e-09
2.62342e-09
2.12752e-09
1.67396e-09
1.26749e-09
9.13291e-10
6.16908e-10
3.83039e-10
2.1314e-10
1.02834e-10
4.10808e-11
1.26031e-11
2.5309e-12
2.03481e-13
1.10657e-15
8.68819e-14
3.69826e-13
6.3899e-13
9.68147e-13
7.32321e-13
1.25867e-12
5.61788e-13
6.67259e-13
6.47833e-13
3.34621e-11
7.85497e-12
5.07892e-12
9.78751e-12
1.29018e-11
1.12463e-11
7.9974e-12
4.90915e-12
2.51941e-12
1.02374e-12
2.99538e-13
4.87054e-14
1.56495e-15
2.29429e-15
2.37048e-14
6.58681e-14
1.11529e-13
1.4504e-13
1.59643e-13
1.56498e-13
1.40886e-13
1.18833e-13
9.5223e-14
7.32212e-14
5.44378e-14
3.93698e-14
2.78375e-14
1.93279e-14
1.3227e-14
8.94843e-15
6.00368e-15
3.99756e-15
2.67435e-15
1.73058e-15
1.26109e-15
6.6011e-16
7.14635e-16
2.50781e-16
2.59665e-16
1.76208e-16
1.34653e-15
2.78816e-16
8.11576e-16
9.81527e-18
6.63645e-17
5.33102e-17
1.44333e-17
5.45878e-18
9.62163e-18
2.68768e-17
5.60911e-17
8.71724e-17
1.09899e-16
1.19757e-16
1.1745e-16
1.06422e-16
9.06685e-17
7.35205e-17
5.72557e-17
4.31354e-17
3.16222e-17
2.26588e-17
1.59224e-17
1.09988e-17
7.48376e-18
5.02613e-18
3.33999e-18
2.20105e-18
1.44265e-18
9.40632e-19
6.13515e-19
3.97715e-19
2.61314e-19
1.67494e-19
1.17377e-19
6.38571e-20
6.51594e-20
2.12626e-20
2.25952e-20
1.56332e-20
)
;

boundaryField
{
    inlet
    {
        type            calculated;
        value           nonuniform List<scalar> 
20
(
5.91288e-33
1.97976e-31
1.9276e-31
1.9325e-31
1.93079e-31
1.92936e-31
1.92867e-31
1.92809e-31
1.92771e-31
1.9274e-31
1.92713e-31
1.92691e-31
1.92682e-31
1.92686e-31
1.92705e-31
1.92799e-31
1.92956e-31
1.92379e-31
1.97588e-31
5.89929e-33
)
;
    }
    outlet
    {
        type            calculated;
        value           nonuniform List<scalar> 
27
(
1.04469e-35
7.4129e-36
4.5113e-36
2.20584e-36
7.4453e-37
1.10247e-37
4.89497e-41
6.68124e-38
5.74008e-37
1.83448e-36
3.88692e-36
6.49866e-36
9.26685e-36
1.17725e-35
1.37259e-35
1.48687e-35
1.06361e-35
6.3396e-36
7.96817e-39
2.29972e-41
2.10076e-41
6.44468e-39
4.09578e-36
4.41479e-35
1.71562e-35
1.53293e-35
1.3163e-35
)
;
    }
    lowerWall
    {
        type            fixedValue;
        value           uniform 0;
    }
    upperWall
    {
        type            fixedValue;
        value           uniform 0;
    }
    defaultFaces
    {
        type            empty;
    }
}


// ************************************************************************* //
