/*--------------------------------*- C++ -*----------------------------------*\
| =========                 |                                                 |
| \\      /  F ield         | OpenFOAM: The Open Source CFD Toolbox           |
|  \\    /   O peration     | Version:  2112                                  |
|   \\  /    A nd           | Website:  www.openfoam.com                      |
|    \\/     M anipulation  |                                                 |
\*---------------------------------------------------------------------------*/
FoamFile
{
    version     2.0;
    format      ascii;
    arch        "LSB;label=32;scalar=64";
    class       volScalarField;
    location    "0.04";
    object      p;
}
// * * * * * * * * * * * * * * * * * * * * * * * * * * * * * * * * * * * * * //

dimensions      [0 2 -2 0 0 0 0];

internalField   nonuniform List<scalar> 
1880
(
0.00593056
0.00563214
0.00558938
0.00560807
0.00553665
0.00547312
0.00545927
0.00545582
0.00544478
0.00543174
0.00542265
0.00541741
0.00541518
0.0054162
0.00542112
0.00543065
0.00544565
0.00546718
0.00549661
0.00553562
0.00558654
0.00565194
0.00573617
0.00584359
0.00598139
0.0061644
0.00638832
0.00672709
0.00708221
0.00774916
0.00575837
0.00556827
0.00555448
0.00559022
0.00552616
0.00546458
0.00545337
0.00545271
0.0054425
0.00542927
0.00541995
0.00541447
0.00541183
0.00541228
0.00541647
0.00542509
0.00543893
0.005459
0.00548653
0.00552312
0.00557065
0.00563183
0.00570912
0.00580797
0.00592927
0.00608495
0.00626415
0.00648657
0.00670877
0.00693884
0.00572535
0.00555063
0.00554501
0.00558481
0.00552202
0.00546114
0.00545023
0.0054494
0.00543868
0.00542484
0.0054149
0.0054087
0.00540515
0.00540444
0.00540718
0.00541399
0.00542555
0.00544274
0.00546659
0.00549839
0.00553959
0.00559219
0.00565769
0.00573916
0.00583693
0.00595363
0.00608711
0.00622867
0.00638366
0.006495
0.00566914
0.00551053
0.00551545
0.00556311
0.00550639
0.00544957
0.005441
0.00544162
0.00543153
0.00541764
0.00540718
0.0054001
0.00539533
0.00539302
0.00539373
0.00539798
0.00540635
0.00541952
0.00543824
0.00546356
0.0054962
0.00553783
0.00558807
0.00565024
0.00571964
0.00580096
0.00588448
0.00595976
0.00603006
0.00602321
0.00564121
0.00548885
0.00549878
0.00554983
0.00549537
0.00544005
0.00543229
0.0054333
0.00542316
0.00540879
0.00539749
0.00538921
0.00538283
0.00537849
0.00537665
0.00537772
0.00538213
0.00539038
0.00540294
0.00542048
0.00544321
0.0054722
0.00550598
0.00554703
0.00558888
0.0056354
0.00567524
0.00569639
0.00571101
0.00565403
0.00561583
0.0054665
0.00547971
0.00553369
0.00548184
0.00542851
0.00542191
0.0054234
0.00541323
0.00539833
0.00538603
0.00537634
0.00536809
0.00536136
0.00535655
0.00535396
0.00535387
0.00535657
0.00536226
0.00537129
0.00538341
0.00539918
0.0054163
0.00543692
0.00545315
0.00546964
0.00547332
0.00545507
0.00542698
0.00533251
0.0055969
0.00544931
0.0054645
0.00552022
0.00546985
0.00541757
0.00541154
0.00541309
0.00540253
0.00538685
0.00537335
0.00536199
0.00535161
0.00534223
0.00533415
0.00532758
0.00532261
0.00531938
0.00531787
0.00531813
0.00531951
0.00532223
0.00532354
0.00532528
0.00531909
0.00530978
0.00528431
0.00523546
0.00517518
0.00505562
0.005582
0.00543528
0.00545159
0.00550832
0.00545881
0.00540707
0.00540122
0.00540257
0.00539143
0.00537474
0.00535981
0.00534661
0.00533394
0.00532172
0.00531017
0.0052994
0.00528941
0.00528014
0.00527139
0.00526294
0.00525395
0.00524435
0.0052312
0.00521602
0.00519063
0.00515962
0.00511086
0.00503851
0.00495405
0.00481758
0.00557063
0.0054243
0.00544115
0.00549831
0.00544913
0.00539749
0.00539146
0.00539229
0.00538029
0.00536239
0.00534589
0.00533072
0.0053156
0.00530041
0.00528531
0.00527032
0.0052553
0.00524006
0.00522425
0.00520749
0.00518881
0.0051679
0.00514186
0.00511185
0.00507032
0.00502141
0.00495419
0.00486428
0.00476179
0.00461384
0.00556247
0.00541623
0.00543316
0.00549034
0.00544104
0.00538908
0.00538251
0.00538255
0.00536947
0.0053502
0.005332
0.00531473
0.00529709
0.00527891
0.00526029
0.00524113
0.00522121
0.00520024
0.00517775
0.00515327
0.00512573
0.00509468
0.00505737
0.00501464
0.00495976
0.0048963
0.00481471
0.00471177
0.00459583
0.00444035
0.00555745
0.00541106
0.00542773
0.00548454
0.00543472
0.00538205
0.00537462
0.00537362
0.00535928
0.00533849
0.00531846
0.00529905
0.00527891
0.00525779
0.00523573
0.00521256
0.00518799
0.00516165
0.00513301
0.00510149
0.00506602
0.00502603
0.00497905
0.00492557
0.00485984
0.00478469
0.00469207
0.00457971
0.00445388
0.00429387
0.00555561
0.0054089
0.00542498
0.00548105
0.00543031
0.00537658
0.005368
0.00536573
0.00534996
0.00532752
0.00530562
0.00528409
0.00526148
0.00523753
0.0052122
0.00518526
0.00515638
0.00512512
0.0050909
0.0050531
0.00501067
0.00496296
0.00490779
0.00484538
0.0047709
0.00468651
0.0045856
0.00446659
0.00433374
0.00417149
0.00555733
0.00541001
0.00542512
0.00548001
0.00542792
0.00537277
0.00536276
0.00535901
0.00534168
0.00531753
0.00529376
0.00527014
0.00524519
0.00521856
0.00519018
0.00515979
0.00512699
0.00509131
0.00505214
0.00500884
0.0049604
0.00490613
0.00484414
0.00477439
0.00469298
0.00460138
0.00449438
0.00437079
0.00423328
0.00407049
0.00556321
0.00541481
0.00542839
0.00548166
0.00542781
0.0053708
0.00535907
0.00535361
0.00533459
0.00530871
0.0052831
0.00525749
0.00523033
0.00520124
0.00517011
0.00513662
0.00510035
0.00506078
0.00501731
0.00496928
0.00491574
0.004856
0.00478841
0.00471275
0.00462589
0.00452879
0.00441739
0.00429075
0.00415041
0.00398826
0.00557367
0.00542328
0.0054344
0.0054853
0.00542912
0.00537001
0.00535645
0.00534929
0.00532863
0.00530109
0.00527377
0.00524632
0.00521717
0.0051859
0.00515233
0.00511613
0.00507685
0.00503395
0.00498683
0.00493484
0.00487708
0.00481285
0.00474074
0.0046604
0.00456935
0.00446813
0.00435361
0.00422504
0.00408317
0.00392234
0.00559226
0.00543873
0.00544631
0.00549377
0.0054342
0.00537207
0.00535588
0.00534679
0.00532412
0.00529487
0.00526592
0.00523683
0.00520593
0.00517276
0.00513712
0.00509864
0.00505683
0.00501116
0.00496105
0.00490581
0.00484464
0.00477683
0.00470118
0.00461721
0.00452302
0.00441877
0.00430209
0.00417239
0.00402983
0.00387068
0.00561345
0.00545351
0.00545574
0.00549936
0.00543687
0.00537232
0.00535436
0.00534366
0.00532001
0.00528964
0.00525945
0.00522904
0.00519673
0.00516202
0.00512469
0.00508436
0.00504053
0.00499267
0.00494018
0.00488241
0.00481859
0.00474802
0.00466969
0.00458302
0.00448654
0.00438015
0.00426203
0.00413177
0.00398904
0.00383165
0.00566562
0.00548938
0.00548078
0.00551613
0.00544709
0.00537791
0.0053569
0.0053437
0.00531816
0.00528613
0.00525471
0.00522318
0.00518973
0.00515382
0.00511521
0.00507348
0.00502814
0.00497864
0.00492439
0.00486476
0.00479901
0.00472645
0.00464619
0.00455763
0.00445958
0.00435179
0.0042328
0.00410239
0.00395977
0.00380403
0.00569475
0.00550308
0.00548613
0.0055172
0.00544658
0.00537627
0.00535444
0.00534084
0.00531493
0.00528292
0.00525114
0.00521902
0.00518489
0.00514823
0.00510879
0.00506615
0.0050198
0.00496922
0.00491382
0.00485296
0.00478596
0.00471212
0.00463064
0.00454089
0.00444188
0.0043333
0.00421385
0.00408373
0.00394143
0.00378728
0.00586552
0.00556536
0.00551924
0.00553308
0.00545499
0.00538263
0.005358
0.00534131
0.00531419
0.00528182
0.00524963
0.00521706
0.00518253
0.00514547
0.00510561
0.00506251
0.00501568
0.00496458
0.00490861
0.00484717
0.00477957
0.00470514
0.00462311
0.00453283
0.00443341
0.00432447
0.00420497
0.00407507
0.00393377
0.00378163
0.00814588
0.00680905
0.00617882
0.00558576
0.00486245
0.00394043
0.00313936
0.00196523
-0.000320433
4.75381e-06
0.00701892
0.00605471
0.00552437
0.00503522
0.00417983
0.00340214
0.00254938
0.00122951
-0.000441813
-0.00214129
0.00658275
0.0059173
0.00546772
0.00486714
0.00424353
0.00341672
0.00261058
0.00151244
4.86031e-05
-0.00134204
0.00596695
0.00544507
0.00490588
0.00446794
0.00364812
0.00305297
0.00215361
0.00115627
6.78389e-05
-0.000957625
0.00559438
0.00518877
0.00476413
0.00424729
0.00370029
0.00301181
0.00226325
0.00140487
0.000498898
-0.000441744
0.00521556
0.00487091
0.00439466
0.00395628
0.00334255
0.00276455
0.00207448
0.00129107
0.00061858
-6.80919e-05
0.00492699
0.00462783
0.00422396
0.00378559
0.00329746
0.00273714
0.00212508
0.00152557
0.000910508
0.000378624
0.00466794
0.0043972
0.00399627
0.00358921
0.00311956
0.00260911
0.00208313
0.00152648
0.00105688
0.000600413
0.00445572
0.00420768
0.00384572
0.00346125
0.00304908
0.00260357
0.00213478
0.00168357
0.00125617
0.000885202
0.00427428
0.00404135
0.00370211
0.00334123
0.00296234
0.00256062
0.00214856
0.00173633
0.00137389
0.00104043
0.00412343
0.00390219
0.00359277
0.00325774
0.00291524
0.00255897
0.00219083
0.00183308
0.00150706
0.00121536
0.00399796
0.0037853
0.00350086
0.00318957
0.00287539
0.00255161
0.00221994
0.00189512
0.00160073
0.00133495
0.00389548
0.00368955
0.0034274
0.00313991
0.00285107
0.00255549
0.00225346
0.00195889
0.00168801
0.00144202
0.00381308
0.00361259
0.00336847
0.0031023
0.0028342
0.00256051
0.00228195
0.00200971
0.00175714
0.00152615
0.00374809
0.00355243
0.00332292
0.00307504
0.00282417
0.00256827
0.00230843
0.00205408
0.00181567
0.00159593
0.00369808
0.00350691
0.00328925
0.00305614
0.00281899
0.00257705
0.00233176
0.00209092
0.00186317
0.00165169
0.00366107
0.00347401
0.00326587
0.00304408
0.00281737
0.00258609
0.00235196
0.00212126
0.00190143
0.00169602
0.0036354
0.0034521
0.00325183
0.00303875
0.00281966
0.00259613
0.00237014
0.00214651
0.00193218
0.00173042
0.00362007
0.00343928
0.00324439
0.00303713
0.0028229
0.0026043
0.00238401
0.00216489
0.00195393
0.00175345
0.0036178
0.00344097
0.00324999
0.00304622
0.00283478
0.00261894
0.00240157
0.00218554
0.00197612
0.00177663
-0.00817656
-0.00804559
-0.00630002
-0.00417272
-0.00216199
-0.000681949
0.000163351
0.000607823
0.000808099
0.000875998
0.000878584
0.000851663
0.000812981
0.000770837
0.000728864
0.000688487
0.000650123
0.000613756
0.000579196
0.0005462
0.000514534
0.000483996
0.000454409
0.000425626
0.000397525
0.000369994
0.000342939
0.000316287
0.000289978
0.000263968
0.000238214
0.000212678
0.00018732
0.000162107
0.000137012
0.000112002
8.70751e-05
6.21826e-05
3.73084e-05
1.24563e-05
-0.00817426
-0.00850602
-0.00644033
-0.00432744
-0.0022054
-0.000688515
0.000161666
0.000599679
0.000793269
0.000858207
0.000861075
0.000836161
0.000800019
0.000760311
0.000720434
0.000681767
0.000644761
0.00060946
0.000575735
0.000543396
0.000512246
0.000482116
0.000452858
0.000424343
0.000396457
0.000369101
0.00034219
0.000315656
0.000289446
0.000263519
0.000237836
0.000212359
0.000187052
0.000161883
0.000136826
0.000111849
8.69502e-05
6.20889e-05
3.72435e-05
1.24279e-05
-0.00953483
-0.0100262
-0.00760477
-0.00482995
-0.00237591
-0.000725849
0.000147765
0.000580134
0.000764772
0.000826465
0.000831084
0.000810325
0.000778853
0.000743408
0.000707083
0.000671254
0.000636465
0.000602879
0.000570481
0.000539172
0.000508826
0.000479327
0.00045057
0.000422456
0.000394891
0.000367794
0.000341095
0.000314736
0.000288674
0.00026287
0.000237289
0.000211899
0.000186665
0.000161559
0.000136556
0.000111631
8.67755e-05
6.19603e-05
3.71605e-05
1.2393e-05
-0.0105449
-0.0122172
-0.00879638
-0.00573489
-0.00268995
-0.000819551
0.000112446
0.000544829
0.000722532
0.000783321
0.000792243
0.000777871
0.000752781
0.000722857
0.000690999
0.00065867
0.000626586
0.000595078
0.000564275
0.000534197
0.000504809
0.00047606
0.000447895
0.000420252
0.000393064
0.000366271
0.000339819
0.000313667
0.000287775
0.000262114
0.000236653
0.000211364
0.000186216
0.000161185
0.000136249
0.000111384
8.65827e-05
6.18213e-05
3.70755e-05
1.23629e-05
-0.0128325
-0.0170691
-0.0129181
-0.00704149
-0.00321731
-0.000987326
4.33434e-05
0.000483675
0.000659241
0.000724598
0.000742704
0.000738196
0.000721734
0.000698776
0.000672338
0.000644157
0.000615235
0.000586137
0.000557175
0.000528513
0.000500223
0.000472333
0.000444843
0.000417736
0.000390977
0.000364532
0.000338364
0.000312445
0.000286748
0.00026125
0.000235925
0.000210752
0.000185704
0.00016076
0.000135901
0.000111105
8.63681e-05
6.16683e-05
3.69833e-05
1.23311e-05
-0.0166127
-0.0212475
-0.0159699
-0.00822081
-0.00363414
-0.00123775
-0.000101458
0.000383681
0.000574234
0.000652163
0.000684683
0.000693253
0.000687236
0.000672298
0.000651931
0.000628325
0.000602858
0.000576383
0.000549422
0.000522298
0.000495201
0.000468243
0.000441489
0.000414967
0.000388678
0.000362612
0.000336756
0.000311094
0.000285611
0.000260291
0.000235118
0.000210073
0.000185136
0.000160289
0.000135516
0.000110799
8.61333e-05
6.1502e-05
3.68837e-05
1.22973e-05
-0.0151619
-0.0271305
-0.0164581
-0.00877361
-0.00454069
-0.00193112
-0.000539566
0.000101018
0.000385131
0.000533398
0.000609063
0.000641539
0.000649796
0.000644282
0.000630545
0.000611772
0.000589902
0.000566145
0.000541259
0.000515731
0.000489875
0.000463893
0.00043791
0.000412002
0.000386209
0.000360546
0.000335021
0.000309634
0.000284379
0.000259252
0.000234241
0.000209335
0.000184519
0.000159778
0.000135099
0.000110467
8.58804e-05
6.13236e-05
3.6777e-05
1.22612e-05
-0.0115309
-0.0195281
-0.0124147
-0.00716294
-0.0050655
-0.00302657
-0.00114109
-0.000129854
0.000310717
0.000488683
0.000565171
0.000601197
0.000616078
0.00061729
0.000609241
0.000594978
0.000576605
0.000555546
0.000532746
0.00050884
0.000484255
0.000459277
0.000434094
0.000408828
0.000383555
0.000358319
0.000333145
0.000308049
0.000283039
0.000258118
0.000233283
0.000208529
0.000183844
0.000159218
0.000134643
0.000110104
8.56047e-05
6.11293e-05
3.66609e-05
1.2222e-05
-0.00593082
-0.0090553
-0.00567866
-0.00503619
-0.00465054
-0.00254982
-0.000897566
-0.000160247
0.000169515
0.000358919
0.000477864
0.000545153
0.000577768
0.000589313
0.000587924
0.000578316
0.000563374
0.000544922
0.00052414
0.000501814
0.000478479
0.000454497
0.000430117
0.000405501
0.000380759
0.00035596
0.00033115
0.000306358
0.000281604
0.000256902
0.000232253
0.00020766
0.000183115
0.000158614
0.000134151
0.000109713
8.53072e-05
6.09196e-05
3.65356e-05
1.21797e-05
-0.00279827
-0.00573355
-0.00542689
-0.00388535
-0.00254528
-0.000817752
8.24174e-05
0.00030894
0.000391472
0.000449432
0.000495861
0.000532648
0.000557263
0.000569101
0.000570316
0.000563607
0.000551253
0.000534958
0.00051593
0.000495021
0.00047283
0.000449778
0.000426156
0.000402163
0.000377935
0.000353565
0.000329113
0.000304624
0.000280128
0.000255646
0.000231187
0.000206759
0.000182358
0.000157986
0.000133638
0.000109306
8.49972e-05
6.07011e-05
3.6405e-05
1.21358e-05
-0.00181818
-0.00301554
-0.00268714
-0.00218927
-0.00187849
-0.00146169
-0.000816494
-0.000283764
6.21304e-05
0.000281137
0.000414401
0.000489821
0.000530009
0.000548959
0.000554285
0.000550461
0.000540347
0.000525859
0.000508312
0.000488623
0.000467439
0.00044522
0.000422291
0.000398877
0.000375134
0.000351172
0.000327067
0.000302874
0.000278631
0.000254367
0.000230098
0.000205836
0.000181583
0.000157341
0.000133111
0.000108887
8.46779e-05
6.04758e-05
3.62704e-05
1.20905e-05
-0.000931845
-0.00179967
-0.00226426
-0.00190286
-0.00122367
-0.000562672
-0.000107916
0.000137134
0.000277364
0.000369549
0.000437837
0.000487545
0.000519551
0.000536743
0.000542549
0.000539912
0.000531123
0.000517892
0.000501467
0.000482754
0.000462409
0.000440907
0.000418589
0.000395696
0.000372398
0.000348817
0.00032504
0.00030113
0.000277132
0.000253082
0.000229
0.000204903
0.000180796
0.000156686
0.000132575
0.00010846
8.43525e-05
6.02461e-05
3.61331e-05
1.20443e-05
-0.000439447
-0.000868826
-0.000922255
-0.000780879
-0.000712261
-0.000508248
-0.000246167
-1.58432e-06
0.000192257
0.000330132
0.000419964
0.000476102
0.000509594
0.000527259
0.000533552
0.000531572
0.000523554
0.000511128
0.000495485
0.0004775
0.000457814
0.0004369
0.000415101
0.000392662
0.000369763
0.000346529
0.000323056
0.000299412
0.000275649
0.000251805
0.000227905
0.000203969
0.000180008
0.000156028
0.000132036
0.000108029
8.40239e-05
6.0014e-05
3.59944e-05
1.19975e-05
0.000112658
-0.000239646
-0.000569523
-0.000627443
-0.000437629
-0.000210653
1.04759e-05
0.000171801
0.000286711
0.000373329
0.000436963
0.000480623
0.000508117
0.000522939
0.000528003
0.000525653
0.000517725
0.000505625
0.000490419
0.00047291
0.000453701
0.000433242
0.000411864
0.00038981
0.000367256
0.000344332
0.000321136
0.000297739
0.000274196
0.000250547
0.000226823
0.000203044
0.000179224
0.000155372
0.000131497
0.000107599
8.36954e-05
5.97817e-05
3.58555e-05
1.19507e-05
0.000356467
0.000109727
-4.62468e-05
-0.000104787
-9.27108e-05
2.15041e-06
0.000120995
0.000232952
0.000326321
0.000398722
0.000451631
0.000487778
0.000510278
0.000521962
0.000525185
0.000521859
0.00051351
0.000501334
0.000486257
0.000468994
0.000450088
0.000429955
0.000408901
0.000387159
0.000364898
0.000342245
0.000319296
0.000296125
0.000272786
0.000249322
0.000225764
0.000202136
0.000178453
0.000154725
0.000130965
0.000107173
8.33697e-05
5.95512e-05
3.57175e-05
1.19042e-05
0.000683675
0.000476301
0.000263407
0.000136514
0.000116451
0.000170511
0.000247906
0.000322144
0.000385096
0.000435759
0.000473957
0.000500374
0.00051653
0.000524146
0.000524826
0.000519971
0.000510763
0.000498167
0.000482952
0.000465728
0.000446968
0.000427039
0.00040622
0.000384721
0.0003627
0.000340279
0.000317549
0.000294581
0.00027143
0.000248138
0.000224737
0.000201253
0.0001777
0.000154093
0.000130444
0.000106755
8.30497e-05
5.93244e-05
3.55817e-05
1.18584e-05
0.000809506
0.000649786
0.00049448
0.000368442
0.000313798
0.000323361
0.000360293
0.000401811
0.000440302
0.000473076
0.000498356
0.000515608
0.000525376
0.000528628
0.000526395
0.000519651
0.000509267
0.000495985
0.000480416
0.00046306
0.000444311
0.000424482
0.000403815
0.000382496
0.000360669
0.000338443
0.000315903
0.000293116
0.000270136
0.000247003
0.00022375
0.0002004
0.000176972
0.000153479
0.000129937
0.000106349
8.27378e-05
5.91032e-05
3.54491e-05
1.18137e-05
0.00102706
0.000854319
0.0006917
0.000555017
0.000475038
0.000452944
0.000459987
0.000476103
0.000494107
0.000510915
0.000524163
0.000532588
0.000536002
0.000534759
0.000529408
0.000520552
0.000508779
0.000494622
0.000478539
0.000460916
0.00044207
0.000422254
0.000401671
0.000380479
0.000358803
0.000336738
0.000314362
0.000291737
0.000268911
0.000245924
0.000222807
0.000199584
0.000176273
0.000152889
0.000129449
0.000105956
8.24365e-05
5.88893e-05
3.53207e-05
1.17703e-05
0.00113882
0.000984337
0.000835298
0.000699696
0.000607006
0.000563062
0.000547309
0.000543164
0.000544201
0.000547293
0.000549829
0.000550128
0.000547509
0.000541868
0.00053337
0.000522314
0.00050904
0.000493894
0.000477191
0.00045921
0.000440187
0.000420318
0.000399765
0.000378657
0.000357095
0.000335163
0.000312928
0.000290445
0.000267758
0.000244905
0.000221914
0.000198809
0.000175608
0.000152326
0.000128982
0.000105581
8.21478e-05
5.86841e-05
3.51976e-05
1.17287e-05
0.00125385
0.00109989
0.000954131
0.000817902
0.000716279
0.000656279
0.00062292
0.000602633
0.000589726
0.000581179
0.000574342
0.000567334
0.000559152
0.000549358
0.000537822
0.000524587
0.000509792
0.000493613
0.000476237
0.000457844
0.000438594
0.000418629
0.000398069
0.00037701
0.000355536
0.000333714
0.000311601
0.000289243
0.000266682
0.000243951
0.000221076
0.000198079
0.00017498
0.000151794
0.000128541
0.000105225
8.18738e-05
5.84891e-05
3.50804e-05
1.16892e-05
0.00134144
0.00118983
0.00104711
0.000911964
0.000805221
0.000733934
0.000687215
0.000654206
0.000629983
0.000611723
0.000596859
0.000583443
0.000570281
0.000556698
0.000542339
0.000527046
0.000510784
0.000493592
0.00047554
0.00045672
0.000437223
0.00041714
0.000396548
0.00037552
0.000354114
0.000332384
0.000310377
0.000288132
0.000265685
0.000243064
0.000220295
0.000197399
0.000174394
0.000151296
0.000128127
0.00010489
8.16161e-05
5.83054e-05
3.49699e-05
1.16519e-05
0.00141372
0.00126225
0.00112092
0.000986954
0.000877108
0.000797718
0.000740832
0.000697854
0.000664558
0.000638327
0.000616733
0.000597842
0.000580353
0.00056343
0.000546547
0.000529391
0.000511788
0.000493655
0.000474969
0.000455742
0.000436005
0.0004158
0.000395172
0.000374163
0.000352815
0.000331166
0.000309253
0.00028711
0.000264766
0.000242247
0.000219574
0.00019677
0.000173851
0.000150835
0.000127743
0.00010458
8.13761e-05
5.81341e-05
3.48667e-05
1.16169e-05
0.00147105
0.00131884
0.0011781
0.00104556
0.000934044
0.000848877
0.000784313
0.000733627
0.000693186
0.000660556
0.000633466
0.000610039
0.000588918
0.000569163
0.000550124
0.000531363
0.000512596
0.000493644
0.000474404
0.00045482
0.000434875
0.000414566
0.000393908
0.000372919
0.000351625
0.000330052
0.000308227
0.000286178
0.000263928
0.000241501
0.000218916
0.000196195
0.000173355
0.000150413
0.000127391
0.000104295
8.11549e-05
5.79756e-05
3.47711e-05
1.15845e-05
0.00151595
0.0013619
0.00122094
0.00108986
0.000977649
0.000888412
0.000818135
0.000761622
0.000715703
0.000678095
0.000646678
0.000619643
0.000595615
0.00057358
0.000552799
0.00053274
0.000513033
0.000493422
0.00047374
0.000453879
0.000433776
0.000413396
0.000392728
0.00037177
0.000350534
0.000329036
0.000307295
0.000285333
0.000263171
0.000240828
0.000218324
0.000195678
0.000172908
0.000150033
0.000127073
0.000104036
8.09533e-05
5.78303e-05
3.46832e-05
1.15542e-05
0.0015502
0.00139365
0.00125194
0.00112203
0.00100947
0.000917269
0.000842773
0.000781971
0.000732013
0.000690714
0.000656073
0.000626346
0.000600149
0.000576417
0.000554347
0.000533337
0.00051295
0.000492874
0.000472891
0.000452852
0.000432661
0.000412258
0.00039161
0.000370702
0.000349533
0.000328113
0.000306456
0.000284578
0.000262496
0.000240231
0.000217799
0.000195221
0.000172514
0.000149697
0.000126791
0.000103806
8.07719e-05
5.76981e-05
3.46023e-05
1.15259e-05
0.00157098
0.0014118
0.00126996
0.00114177
0.00102962
0.000935643
0.000858364
0.000794704
0.000742038
0.000698255
0.000661447
0.000629923
0.000602295
0.000577464
0.000554578
0.000532988
0.000512207
0.000491882
0.00047176
0.000451662
0.000431469
0.000411102
0.000390514
0.000369682
0.000348598
0.000327265
0.000305694
0.000283898
0.000261895
0.000239702
0.000217336
0.000194819
0.000172168
0.000149401
0.000126541
0.000103601
8.06061e-05
5.75749e-05
3.45229e-05
1.14925e-05
0.00159087
0.00142513
0.00128012
0.0011521
0.00103982
0.00094451
0.000865507
0.000800227
0.000746105
0.000701033
0.000663132
0.00063073
0.000602429
0.000577105
0.000553877
0.000532066
0.00051116
0.000490781
0.000470655
0.00045059
0.000430453
0.000410156
0.000389646
0.000368894
0.000347889
0.000326633
0.000305133
0.000283404
0.000261461
0.000239322
0.000217006
0.000194534
0.000171922
0.000149193
0.000126364
0.000103455
8.04867e-05
5.7485e-05
3.44633e-05
1.14663e-05
)
;

boundaryField
{
    inlet
    {
        type            zeroGradient;
    }
    outlet
    {
        type            fixedValue;
        value           uniform 0;
    }
    lowerWall
    {
        type            zeroGradient;
    }
    upperWall
    {
        type            zeroGradient;
    }
    defaultFaces
    {
        type            empty;
    }
}


// ************************************************************************* //
