/*--------------------------------*- C++ -*----------------------------------*\
| =========                 |                                                 |
| \\      /  F ield         | OpenFOAM: The Open Source CFD Toolbox           |
|  \\    /   O peration     | Version:  2112                                  |
|   \\  /    A nd           | Website:  www.openfoam.com                      |
|    \\/     M anipulation  |                                                 |
\*---------------------------------------------------------------------------*/
FoamFile
{
    version     2.0;
    format      ascii;
    arch        "LSB;label=32;scalar=64";
    class       volScalarField;
    location    "0.14";
    object      nut;
}
// * * * * * * * * * * * * * * * * * * * * * * * * * * * * * * * * * * * * * //

dimensions      [0 2 -1 0 0 0 0];

internalField   nonuniform List<scalar> 
1880
(
3.43453e-11
5.47956e-12
1.67958e-13
6.59456e-15
2.09982e-14
1.77649e-13
6.31088e-15
1.08644e-13
5.76976e-14
5.91552e-14
2.45773e-13
6.2113e-13
5.63822e-13
2.76127e-13
1.10393e-13
3.50206e-14
5.45747e-14
1.82725e-13
3.74261e-13
9.1295e-13
1.31625e-12
2.15063e-12
2.2239e-12
3.51727e-12
7.65014e-12
4.36685e-12
2.05791e-10
1.66031e-11
6.58491e-09
1.45229e-09
4.93672e-09
6.28011e-09
8.03991e-10
5.08447e-10
1.44632e-10
2.8343e-11
1.96612e-12
5.96371e-11
3.82241e-11
3.56556e-12
9.79017e-12
7.34277e-11
1.16811e-10
4.52281e-11
3.9699e-11
1.75021e-12
1.12278e-11
2.83665e-11
2.28634e-11
1.19978e-10
9.71665e-11
1.87702e-10
3.32175e-10
5.13665e-10
8.3382e-10
4.10789e-09
4.2956e-09
1.84655e-08
2.25094e-08
6.13121e-08
1.49588e-09
1.47803e-09
1.9265e-09
1.97299e-09
2.51761e-09
7.66997e-09
6.41695e-09
4.59707e-09
2.98656e-09
6.0314e-09
1.81422e-09
3.3898e-09
5.28033e-09
2.20311e-10
1.75204e-11
9.03796e-10
2.65665e-10
3.63637e-09
8.75104e-10
6.30526e-09
3.26873e-09
7.03722e-09
1.14183e-08
7.87156e-09
2.14918e-08
1.68217e-08
2.54229e-08
3.73066e-08
2.90413e-08
6.12841e-08
1.11389e-12
1.62249e-10
4.19894e-09
2.43378e-09
5.33357e-09
4.61766e-09
2.08715e-09
4.40427e-09
1.8688e-09
2.75379e-09
2.9537e-10
1.01451e-09
2.66218e-09
1.51251e-09
2.3516e-09
3.09398e-09
3.5692e-09
4.74395e-09
3.74119e-09
6.49029e-09
4.74695e-09
8.81098e-09
8.59161e-09
1.38037e-08
1.52016e-08
2.10965e-08
2.2397e-08
2.80208e-08
2.87582e-08
4.13133e-08
9.17128e-12
1.01041e-10
4.81564e-09
8.55607e-10
3.688e-09
4.94856e-09
4.79599e-09
3.01176e-09
1.12901e-09
4.35966e-09
2.69218e-09
3.80401e-11
5.47347e-10
1.15683e-09
8.59487e-10
2.48482e-09
2.08871e-09
3.74381e-09
3.48976e-09
5.62326e-09
7.35262e-09
1.05198e-08
1.4528e-08
1.70528e-08
2.02681e-08
2.07071e-08
2.10636e-08
2.65799e-08
2.27361e-08
3.52262e-08
1.37818e-12
2.28653e-10
3.25844e-09
1.8205e-09
6.17126e-09
3.60254e-09
3.08678e-09
5.51444e-09
2.99509e-09
4.64891e-09
3.86255e-09
1.15272e-09
2.73137e-09
2.0967e-09
2.27263e-10
1.77666e-09
2.37498e-09
3.27051e-09
3.22772e-09
5.1772e-09
5.8712e-09
8.55497e-09
9.9024e-09
1.15166e-08
1.3147e-08
1.44307e-08
1.72902e-08
1.97661e-08
2.35298e-08
2.79115e-08
3.87681e-13
1.61397e-10
3.85035e-09
1.23679e-09
4.90861e-09
4.39429e-09
4.43668e-09
4.4157e-09
2.34204e-09
3.92761e-09
1.87702e-09
4.48433e-10
1.38996e-09
8.68162e-10
6.80445e-10
1.82286e-09
2.22871e-09
2.88122e-09
3.56243e-09
4.99026e-09
7.22934e-09
9.53523e-09
1.21116e-08
1.27004e-08
1.41442e-08
1.46527e-08
1.44351e-08
2.06306e-08
1.79066e-08
2.60043e-08
1.48646e-12
3.31734e-10
3.42186e-09
1.86165e-09
5.95228e-09
4.06764e-09
3.96736e-09
5.64682e-09
3.40438e-09
3.51412e-09
1.37244e-09
1.3355e-09
2.48048e-09
9.45861e-10
1.27976e-09
1.81199e-09
2.62432e-09
2.78281e-09
3.59303e-09
4.58601e-09
6.19014e-09
7.66282e-09
9.11659e-09
9.54263e-09
1.09332e-08
1.20851e-08
1.42872e-08
1.63296e-08
1.96277e-08
2.08691e-08
3.44239e-12
4.95748e-10
3.05899e-09
2.02528e-09
5.89439e-09
4.78604e-09
4.69818e-09
5.4042e-09
3.35486e-09
4.33278e-09
2.18371e-09
1.8296e-09
2.73188e-09
1.59983e-09
1.83926e-09
2.09354e-09
2.89819e-09
2.80578e-09
3.82625e-09
4.42704e-09
6.23328e-09
7.36915e-09
8.79823e-09
9.18308e-09
9.86918e-09
1.19282e-08
1.24321e-08
1.65308e-08
1.59053e-08
1.99874e-08
1.08534e-11
7.35522e-10
2.51869e-09
2.26754e-09
6.08873e-09
5.16636e-09
4.90448e-09
5.59283e-09
3.61131e-09
4.48101e-09
2.53968e-09
2.34589e-09
3.11877e-09
2.03421e-09
2.27672e-09
2.38604e-09
3.19242e-09
2.97745e-09
3.94476e-09
4.30012e-09
5.73853e-09
6.59696e-09
7.63736e-09
8.40705e-09
9.22921e-09
1.08573e-08
1.2352e-08
1.37701e-08
1.65993e-08
1.73018e-08
5.6807e-11
1.00446e-09
1.98312e-09
2.48623e-09
6.33165e-09
5.32137e-09
4.84727e-09
5.82493e-09
3.87921e-09
4.32028e-09
2.70092e-09
2.82146e-09
3.49704e-09
2.38804e-09
2.64261e-09
2.67295e-09
3.44099e-09
3.17911e-09
4.0752e-09
4.28993e-09
5.50941e-09
6.23816e-09
7.01154e-09
8.06238e-09
8.59433e-09
1.06269e-08
1.14589e-08
1.34084e-08
1.42877e-08
1.6367e-08
1.72267e-10
1.12037e-09
1.9937e-09
2.44024e-09
6.14234e-09
5.7454e-09
5.2166e-09
5.38128e-09
3.62142e-09
4.7756e-09
3.3117e-09
3.03437e-09
3.59407e-09
2.80051e-09
2.96478e-09
2.98088e-09
3.59599e-09
3.3864e-09
4.14474e-09
4.3097e-09
5.27642e-09
5.95831e-09
6.55824e-09
7.72803e-09
8.29451e-09
9.77901e-09
1.10106e-08
1.20088e-08
1.39025e-08
1.49514e-08
9.68866e-11
1.08994e-09
2.64104e-09
2.616e-09
6.52234e-09
5.32332e-09
4.68502e-09
5.71041e-09
3.92117e-09
4.08433e-09
3.04717e-09
3.49875e-09
4.08299e-09
2.99423e-09
3.18802e-09
3.17079e-09
3.77696e-09
3.54843e-09
4.18506e-09
4.35047e-09
5.0987e-09
5.77825e-09
6.22372e-09
7.47291e-09
7.96569e-09
9.40198e-09
1.039e-08
1.15112e-08
1.26438e-08
1.41249e-08
1.9206e-11
7.09175e-10
4.03835e-09
2.09143e-09
5.68219e-09
5.79889e-09
5.20734e-09
4.98848e-09
3.51726e-09
4.35121e-09
3.52955e-09
3.5647e-09
3.96984e-09
3.40204e-09
3.45588e-09
3.40199e-09
3.73712e-09
3.63626e-09
4.13054e-09
4.33298e-09
4.93888e-09
5.61436e-09
6.00382e-09
7.19291e-09
7.71223e-09
8.86045e-09
9.92244e-09
1.08286e-08
1.19829e-08
1.3253e-08
8.47646e-12
6.69651e-10
3.51865e-09
2.68343e-09
6.91051e-09
3.83803e-09
3.53114e-09
5.71415e-09
3.95162e-09
2.95528e-09
2.83882e-09
3.7859e-09
4.27796e-09
3.43572e-09
3.51406e-09
3.47247e-09
3.86677e-09
3.66606e-09
4.07678e-09
4.29516e-09
4.79152e-09
5.47129e-09
5.82673e-09
6.94439e-09
7.46785e-09
8.50269e-09
9.46087e-09
1.03945e-08
1.12967e-08
1.25793e-08
2.58865e-11
4.70189e-10
5.32651e-09
1.86741e-09
4.84499e-09
5.64382e-09
5.28403e-09
4.19341e-09
2.97111e-09
3.99447e-09
3.66891e-09
3.69379e-09
4.20581e-09
3.69132e-09
3.64495e-09
3.45508e-09
3.51186e-09
3.50247e-09
3.81422e-09
4.13212e-09
4.58473e-09
5.28338e-09
5.66092e-09
6.6918e-09
7.24935e-09
8.16318e-09
9.08195e-09
9.98296e-09
1.08073e-08
1.19788e-08
2.04245e-12
2.30627e-10
7.61893e-10
2.89615e-09
6.04268e-09
1.85939e-09
1.72257e-09
5.06544e-09
3.2426e-09
1.69288e-09
2.2468e-09
4.17417e-09
4.58078e-09
3.54835e-09
3.4201e-09
3.24106e-09
3.4109e-09
3.25247e-09
3.56679e-09
3.92452e-09
4.35922e-09
5.08601e-09
5.49334e-09
6.44594e-09
7.03774e-09
7.90346e-09
8.73799e-09
9.6605e-09
1.04017e-08
1.15052e-08
1.73964e-09
1.96968e-09
2.46965e-09
2.8952e-09
3.67173e-09
8.51241e-09
6.35562e-09
5.14588e-09
4.06673e-09
5.71937e-09
2.38287e-09
3.80702e-11
2.12333e-09
2.21418e-08
2.49111e-08
1.22807e-08
2.91327e-09
2.07273e-10
1.18805e-12
1.6696e-10
3.03895e-10
1.5479e-09
1.72437e-09
3.43112e-09
3.9488e-09
5.65437e-09
6.12204e-09
8.00136e-09
8.4816e-09
1.01379e-08
5.00596e-09
6.05756e-09
6.82637e-10
4.53576e-10
1.16693e-10
2.32669e-11
3.10259e-12
4.89471e-11
2.06137e-11
1.07834e-12
4.52841e-11
2.07144e-10
2.55626e-10
1.88273e-10
1.04693e-10
4.24009e-11
1.55093e-11
5.71001e-12
3.12749e-12
1.49503e-12
1.92878e-12
9.39257e-13
1.37235e-12
1.15788e-12
6.714e-13
4.62477e-13
4.01675e-13
4.11123e-15
1.25611e-14
1.4517e-13
3.36518e-11
5.32478e-12
1.49407e-13
4.06515e-15
1.5508e-14
1.66411e-13
4.5986e-15
8.0289e-14
2.62144e-14
5.71813e-14
3.66161e-13
8.78445e-13
7.48966e-13
4.45411e-13
2.16631e-13
7.67325e-14
2.17571e-14
6.31063e-15
2.51845e-15
1.66785e-15
1.41039e-15
1.43208e-15
1.53733e-15
1.87099e-15
9.85475e-16
1.75621e-15
6.67457e-16
7.32607e-16
2.15618e-16
5.43184e-17
7.62192e-09
1.36515e-08
9.98711e-11
1.13596e-09
6.1391e-09
4.54933e-10
8.37505e-09
4.29423e-09
4.61895e-11
4.2603e-09
3.14239e-08
6.84633e-08
4.03695e-09
3.00552e-08
7.81228e-08
4.54678e-08
1.57708e-06
4.62577e-08
1.61664e-07
5.77671e-07
8.3108e-08
5.22711e-08
6.0957e-08
2.74781e-07
5.06955e-08
8.5682e-08
1.04743e-06
9.60578e-08
7.23379e-09
1.31613e-07
4.65092e-08
4.15938e-08
5.12544e-08
3.99418e-08
2.60655e-08
7.90274e-08
7.50935e-08
1.54225e-08
6.54256e-08
1.10538e-07
4.90194e-08
3.44779e-08
4.07045e-08
3.19307e-08
3.77477e-08
6.18198e-08
5.80327e-08
7.25502e-09
6.57168e-08
7.93583e-08
3.81775e-08
3.24176e-08
3.40622e-08
3.54276e-08
2.92714e-08
5.01817e-08
5.04487e-08
2.23257e-08
4.21135e-08
7.74068e-08
3.47139e-08
2.58914e-08
3.20521e-08
3.0689e-08
3.12403e-08
3.80307e-08
3.96064e-08
3.00738e-08
4.64542e-08
4.85634e-08
3.27698e-08
2.67401e-08
2.7754e-08
2.8678e-08
2.82565e-08
3.5604e-08
3.57319e-08
2.82401e-08
3.39555e-08
4.36327e-08
2.62941e-08
2.15685e-08
2.58031e-08
2.70388e-08
2.59072e-08
2.89868e-08
3.18631e-08
2.75274e-08
2.98606e-08
3.19974e-08
2.48114e-08
2.12951e-08
2.32147e-08
2.37801e-08
2.47481e-08
2.75303e-08
2.66406e-08
2.51843e-08
2.5637e-08
2.7233e-08
2.01996e-08
1.86635e-08
2.11705e-08
2.25434e-08
2.25377e-08
2.3431e-08
2.42312e-08
2.24933e-08
2.22379e-08
2.24428e-08
1.83839e-08
1.7629e-08
1.96265e-08
2.02491e-08
2.11508e-08
2.18711e-08
2.08772e-08
2.0223e-08
1.9593e-08
1.89675e-08
1.61207e-08
1.61831e-08
1.79051e-08
1.88998e-08
1.9352e-08
1.94022e-08
1.89593e-08
1.79961e-08
1.73498e-08
1.63984e-08
1.47545e-08
1.51373e-08
1.66536e-08
1.73547e-08
1.78383e-08
1.78656e-08
1.69323e-08
1.61393e-08
1.53686e-08
1.41741e-08
1.35841e-08
1.42007e-08
1.53891e-08
1.61114e-08
1.6435e-08
1.625e-08
1.548e-08
1.45802e-08
1.37662e-08
1.24843e-08
1.2786e-08
1.34182e-08
1.4423e-08
1.49766e-08
1.51979e-08
1.50087e-08
1.4211e-08
1.33102e-08
1.23852e-08
1.10973e-08
1.2156e-08
1.27768e-08
1.35725e-08
1.40257e-08
1.41655e-08
1.39914e-08
1.32781e-08
1.23733e-08
1.14327e-08
1.01221e-08
1.06635e-08
1.04833e-08
1.13205e-08
1.07553e-08
1.10823e-08
9.7572e-09
9.34477e-09
7.07423e-09
6.20881e-09
3.90381e-09
6.62694e-13
2.99387e-12
7.34655e-12
1.90978e-11
2.91153e-11
4.57824e-11
4.94554e-11
5.3397e-11
4.52977e-11
3.83904e-11
8.21704e-16
2.7708e-15
6.46097e-15
1.27638e-14
2.17988e-14
3.27923e-14
4.26927e-14
6.04761e-14
5.36762e-14
3.7568e-14
6.18869e-08
2.5872e-08
8.91133e-09
1.96153e-09
1.33378e-09
8.19067e-10
1.24997e-09
2.5388e-09
1.17869e-08
5.9973e-08
1.29435e-07
3.37286e-08
3.72589e-09
4.65833e-10
6.97333e-11
1.10721e-11
1.62889e-12
1.90635e-13
1.39013e-14
2.50323e-16
1.42091e-17
2.20766e-16
3.41205e-16
2.96644e-16
2.03117e-16
1.25931e-16
7.43887e-17
4.18567e-17
2.38153e-17
1.35211e-17
7.92483e-18
4.75387e-18
2.91705e-18
1.88953e-18
1.35526e-18
9.15233e-19
8.21376e-19
5.23012e-19
6.71139e-19
3.32256e-19
2.49819e-09
5.99249e-08
2.06156e-07
1.5694e-07
7.70987e-08
3.47676e-08
9.33727e-08
1.4024e-07
1.64378e-07
1.6057e-07
1.48392e-07
1.24637e-07
9.80184e-08
7.0752e-08
4.50514e-08
2.35177e-08
9.46747e-09
2.95202e-09
7.62271e-10
1.75855e-10
3.82472e-11
8.13447e-12
1.74346e-12
3.86286e-13
9.1383e-14
2.28062e-14
6.5135e-15
1.84069e-15
6.85833e-16
2.00234e-16
8.16833e-17
2.72118e-17
6.62852e-18
2.99369e-18
5.14941e-19
1.75648e-19
1.42356e-18
4.99218e-19
7.83669e-18
3.70494e-18
1.40558e-07
1.76812e-07
1.15487e-07
1.54437e-08
1.36411e-06
1.18331e-06
5.71805e-10
5.08902e-08
1.18744e-07
1.51067e-07
1.52113e-07
1.31952e-07
1.05516e-07
8.13176e-08
6.22589e-08
4.79276e-08
3.71293e-08
2.87842e-08
2.20639e-08
1.63163e-08
1.1181e-08
6.77224e-09
3.5115e-09
1.56317e-09
6.24736e-10
2.34047e-10
8.86319e-11
3.28158e-11
1.35211e-11
5.22573e-12
2.3335e-12
9.92202e-13
4.33924e-13
1.96957e-13
8.6146e-14
3.52256e-14
1.20277e-14
5.09286e-15
4.66639e-16
2.49301e-16
1.97586e-07
5.06615e-09
2.44462e-08
6.43487e-07
3.05789e-06
2.66812e-06
6.36311e-07
1.68396e-09
8.67819e-09
5.00047e-08
1.02831e-07
1.24189e-07
1.10317e-07
8.51491e-08
6.32285e-08
4.71217e-08
3.56342e-08
2.7327e-08
2.11143e-08
1.63669e-08
1.27374e-08
9.97893e-09
7.88477e-09
6.27901e-09
5.0327e-09
4.03414e-09
3.23624e-09
2.54931e-09
2.00514e-09
1.49991e-09
1.12221e-09
7.75088e-10
5.33028e-10
3.29431e-10
2.13276e-10
1.12553e-10
6.84198e-11
3.25953e-11
1.73845e-11
7.31812e-12
2.94196e-07
7.70985e-08
3.14167e-08
1.90153e-06
3.26911e-06
2.24424e-06
1.06287e-06
7.35613e-08
3.10096e-11
6.37792e-09
2.90793e-08
6.4867e-08
8.43704e-08
8.09911e-08
6.36681e-08
4.61671e-08
3.39596e-08
2.56153e-08
1.95985e-08
1.51595e-08
1.1842e-08
9.33446e-09
7.42466e-09
5.95546e-09
4.81894e-09
3.92199e-09
3.22216e-09
2.64642e-09
2.2053e-09
1.81761e-09
1.53478e-09
1.26768e-09
1.08291e-09
8.94224e-10
7.7975e-10
6.38391e-10
5.71306e-10
4.69252e-10
4.30848e-10
3.60595e-10
4.33461e-08
4.361e-08
3.44344e-07
3.14268e-06
3.56321e-06
2.3212e-06
1.11495e-06
1.55938e-07
1.05329e-11
9.0342e-09
3.36863e-08
6.43162e-08
6.42289e-08
5.38404e-08
4.89131e-08
4.43964e-08
3.46856e-08
2.53301e-08
1.88973e-08
1.44756e-08
1.12697e-08
8.89189e-09
7.10396e-09
5.73305e-09
4.66793e-09
3.8187e-09
3.1501e-09
2.5939e-09
2.1646e-09
1.78519e-09
1.50595e-09
1.24241e-09
1.0596e-09
8.71832e-10
7.59667e-10
6.18652e-10
5.56506e-10
4.51747e-10
4.24004e-10
3.47854e-10
2.28014e-07
3.52619e-07
3.79213e-08
5.60614e-08
9.05449e-07
1.38767e-06
1.66158e-06
5.58514e-07
3.10491e-09
2.99859e-08
5.88102e-08
7.34746e-08
5.86879e-08
6.88182e-08
4.10175e-08
2.76196e-08
2.71556e-08
2.52775e-08
1.97798e-08
1.47016e-08
1.11359e-08
8.6648e-09
6.88403e-09
5.55275e-09
4.53385e-09
3.7239e-09
3.08485e-09
2.54783e-09
2.13139e-09
1.76048e-09
1.48503e-09
1.22587e-09
1.04282e-09
8.56415e-10
7.43031e-10
6.01621e-10
5.3696e-10
4.31129e-10
4.00939e-10
3.22783e-10
8.27474e-09
1.37584e-07
4.20421e-08
2.48102e-06
2.35708e-06
3.43724e-07
9.5545e-07
6.02388e-11
4.32686e-08
3.43343e-09
4.49528e-08
1.80827e-08
8.60509e-07
8.47589e-07
4.47866e-07
1.4708e-08
2.26616e-08
1.9261e-08
1.77285e-08
1.48331e-08
1.15126e-08
8.81549e-09
6.88472e-09
5.51857e-09
4.52179e-09
3.74444e-09
3.13032e-09
2.60416e-09
2.19098e-09
1.81652e-09
1.53431e-09
1.26864e-09
1.07659e-09
8.82882e-10
7.62294e-10
6.13453e-10
5.42087e-10
4.29924e-10
3.94066e-10
3.09937e-10
1.0009e-06
2.31787e-08
1.69407e-07
3.0358e-06
2.36592e-06
1.11681e-06
1.90859e-08
8.31314e-08
5.11066e-08
9.0268e-08
2.04508e-09
6.64836e-08
2.3306e-08
6.15874e-07
1.38175e-07
4.30606e-08
1.14e-07
1.14057e-07
8.6612e-09
1.18691e-08
1.06618e-08
8.93109e-09
7.25153e-09
5.81721e-09
4.68681e-09
3.80759e-09
3.14029e-09
2.59107e-09
2.17109e-09
1.79626e-09
1.51406e-09
1.25163e-09
1.05843e-09
8.66185e-10
7.43836e-10
5.94449e-10
5.19289e-10
4.05821e-10
3.65035e-10
2.77983e-10
1.40507e-07
1.37041e-07
1.5342e-08
7.15324e-09
1.22371e-08
4.88451e-10
8.55199e-08
2.20357e-07
8.05232e-08
1.21836e-07
7.27443e-08
7.29529e-08
1.08199e-08
2.13682e-09
2.4322e-08
5.18437e-08
1.35943e-08
6.70773e-10
1.75248e-10
2.40817e-09
5.20207e-10
3.32913e-09
4.47682e-09
4.28767e-09
3.83962e-09
3.35433e-09
2.90313e-09
2.46571e-09
2.10173e-09
1.75518e-09
1.48551e-09
1.23171e-09
1.03969e-09
8.49868e-10
7.26172e-10
5.76384e-10
4.97456e-10
3.82488e-10
3.36307e-10
2.44987e-10
7.20918e-08
1.65986e-08
9.69114e-08
1.3006e-07
7.4886e-08
7.66605e-08
1.10076e-07
5.54033e-08
1.26315e-08
9.42301e-08
7.09822e-08
2.5472e-08
2.39524e-08
4.72245e-09
5.02746e-09
6.78142e-09
1.32729e-08
2.31498e-08
2.64172e-08
2.18344e-08
1.56862e-08
1.11058e-08
8.05409e-09
6.00394e-09
4.627e-09
3.67918e-09
3.01745e-09
2.49326e-09
2.09832e-09
1.74242e-09
1.46977e-09
1.21762e-09
1.02454e-09
8.35938e-10
7.1079e-10
5.60524e-10
4.78107e-10
3.6155e-10
3.09892e-10
2.12153e-10
7.36384e-08
5.34334e-08
6.5661e-08
9.36159e-08
8.69206e-08
1.02026e-07
4.60915e-08
5.93699e-08
2.30333e-10
9.69634e-09
1.90193e-09
3.63989e-09
3.95257e-08
4.35088e-07
6.61398e-07
3.9755e-07
2.20868e-11
1.68203e-08
2.18511e-08
1.73774e-08
1.27375e-08
9.42255e-09
7.03562e-09
5.34493e-09
4.21234e-09
3.43696e-09
2.88326e-09
2.41864e-09
2.05448e-09
1.71459e-09
1.44934e-09
1.20281e-09
1.01068e-09
8.23977e-10
6.98079e-10
5.47691e-10
4.62537e-10
3.44608e-10
2.88041e-10
1.80161e-10
5.99338e-08
2.12603e-08
6.31747e-08
6.89192e-08
6.54816e-08
4.90943e-08
6.43127e-08
8.26401e-08
6.60705e-08
9.44654e-08
2.34949e-07
8.52675e-08
7.8747e-08
5.61226e-08
2.39949e-10
2.18452e-07
1.1999e-08
2.1134e-09
6.49291e-09
1.14732e-08
1.22276e-08
9.80494e-09
7.17574e-09
5.33258e-09
4.1541e-09
3.3765e-09
2.83452e-09
2.38247e-09
2.02804e-09
1.69521e-09
1.43414e-09
1.19125e-09
1.00022e-09
8.15105e-10
6.89032e-10
5.38838e-10
4.52012e-10
3.33238e-10
2.73176e-10
1.51883e-10
4.85879e-08
4.00075e-08
4.91361e-08
4.37636e-08
5.15238e-08
4.99184e-08
2.73712e-08
2.42773e-08
1.4176e-08
2.9773e-08
3.38323e-09
1.22009e-07
2.74099e-08
3.22427e-08
1.9405e-09
1.27866e-08
3.18301e-08
3.60374e-08
2.97462e-08
2.19855e-08
1.59591e-08
1.15996e-08
8.39447e-09
6.09628e-09
4.55907e-09
3.55914e-09
2.90419e-09
2.40142e-09
2.0274e-09
1.68823e-09
1.42588e-09
1.18397e-09
9.93684e-10
8.09801e-10
6.8411e-10
5.34507e-10
4.47338e-10
3.28545e-10
2.6726e-10
1.38625e-10
3.65718e-08
2.66842e-08
3.88778e-08
4.68415e-08
3.42977e-08
4.25529e-08
4.56625e-08
3.6206e-08
3.66927e-10
4.00153e-08
1.95899e-08
9.57786e-09
8.39224e-09
3.65072e-07
3.68752e-07
5.88273e-08
1.119e-08
2.12174e-08
2.38449e-08
1.98062e-08
1.46126e-08
9.95688e-09
6.79786e-09
4.926e-09
3.86731e-09
3.20907e-09
2.74038e-09
2.32552e-09
1.98986e-09
1.66813e-09
1.41445e-09
1.17693e-09
9.89656e-10
8.07561e-10
6.83253e-10
5.34796e-10
4.4877e-10
3.3091e-10
2.71073e-10
1.49387e-10
3.35232e-08
3.16692e-08
3.02998e-08
2.99892e-08
3.58557e-08
3.38959e-08
2.64507e-08
3.98781e-08
3.59712e-08
1.53249e-08
1.36632e-08
3.76091e-08
3.82148e-08
1.81637e-08
9.4114e-09
1.94012e-08
2.75007e-08
2.65763e-08
2.25717e-08
1.80328e-08
1.3867e-08
1.03647e-08
7.61611e-09
5.63069e-09
4.3119e-09
3.43735e-09
2.84036e-09
2.36236e-09
2.00036e-09
1.6689e-09
1.41327e-09
1.1754e-09
9.90049e-10
8.09065e-10
6.86597e-10
5.39609e-10
4.56038e-10
3.39904e-10
2.838e-10
1.76188e-10
2.3822e-08
2.23401e-08
2.52172e-08
2.87469e-08
2.46015e-08
2.80446e-08
3.25234e-08
2.39545e-08
2.2843e-08
3.20743e-08
3.35157e-08
2.79996e-08
1.23955e-08
1.29024e-08
2.73734e-08
3.07738e-08
2.78257e-08
2.29977e-08
1.82815e-08
1.4202e-08
1.06874e-08
7.82843e-09
5.80502e-09
4.5391e-09
3.75516e-09
3.18561e-09
2.73077e-09
2.31437e-09
1.97796e-09
1.65816e-09
1.40936e-09
1.1742e-09
9.9268e-10
8.1327e-10
6.93441e-10
5.48305e-10
4.6828e-10
3.54378e-10
3.03431e-10
2.0701e-10
2.34302e-08
2.2659e-08
2.06679e-08
2.13859e-08
2.24276e-08
2.16767e-08
2.06025e-08
2.42225e-08
2.52924e-08
1.75972e-08
1.75373e-08
2.64993e-08
2.6758e-08
2.19931e-08
1.88251e-08
1.83227e-08
1.80314e-08
1.67956e-08
1.48503e-08
1.24611e-08
9.99978e-09
7.79604e-09
6.05918e-09
4.81022e-09
3.93566e-09
3.27681e-09
2.76849e-09
2.32738e-09
1.98161e-09
1.65901e-09
1.41159e-09
1.17658e-09
9.98441e-10
8.20194e-10
7.03322e-10
5.60149e-10
4.84345e-10
3.72812e-10
3.27571e-10
2.38286e-10
1.7658e-08
1.67491e-08
1.68235e-08
1.85644e-08
1.77753e-08
1.87463e-08
2.00059e-08
1.84533e-08
1.86067e-08
2.0705e-08
2.02298e-08
1.88641e-08
1.71657e-08
1.50181e-08
1.71941e-08
1.8943e-08
1.80103e-08
1.57652e-08
1.31014e-08
1.04963e-08
8.25025e-09
6.52256e-09
5.30274e-09
4.43414e-09
3.76722e-09
3.20416e-09
2.7357e-09
2.31276e-09
1.9752e-09
1.65706e-09
1.41397e-09
1.18001e-09
1.00595e-09
8.28927e-10
7.15325e-10
5.74148e-10
5.0288e-10
3.9359e-10
3.53978e-10
2.6937e-10
1.63919e-08
1.56216e-08
1.42846e-08
1.45306e-08
1.48334e-08
1.47615e-08
1.50027e-08
1.6017e-08
1.72674e-08
1.67072e-08
1.50071e-08
1.68496e-08
1.81139e-08
1.70495e-08
1.48762e-08
1.33943e-08
1.23738e-08
1.13145e-08
1.00742e-08
8.70005e-09
7.36254e-09
6.19606e-09
5.23434e-09
4.43982e-09
3.77859e-09
3.20918e-09
2.73625e-09
2.3127e-09
1.97581e-09
1.65877e-09
1.41873e-09
1.18509e-09
1.01495e-09
8.38927e-10
7.2863e-10
5.89309e-10
5.22553e-10
4.15209e-10
3.80772e-10
2.99338e-10
1.32237e-08
1.23204e-08
1.15346e-08
1.19327e-08
1.20559e-08
1.24937e-08
1.33459e-08
1.36215e-08
1.41417e-08
1.5123e-08
1.5482e-08
1.48215e-08
1.44297e-08
1.40638e-08
1.34836e-08
1.30534e-08
1.24097e-08
1.1253e-08
9.82346e-09
8.39199e-09
7.1182e-09
6.04773e-09
5.15569e-09
4.39919e-09
3.75661e-09
3.19765e-09
2.72994e-09
2.31055e-09
1.97621e-09
1.66099e-09
1.42417e-09
1.19084e-09
1.02451e-09
8.49348e-10
7.42261e-10
6.04562e-10
5.42065e-10
4.36298e-10
4.06423e-10
3.27133e-10
1.16255e-08
1.07867e-08
9.61413e-09
9.44899e-09
9.6447e-09
9.91776e-09
1.05304e-08
1.13952e-08
1.23999e-08
1.30989e-08
1.32084e-08
1.33914e-08
1.37269e-08
1.37402e-08
1.32308e-08
1.22725e-08
1.11382e-08
1.00001e-08
8.88602e-09
7.81668e-09
6.81844e-09
5.90672e-09
5.09015e-09
4.36693e-09
3.739e-09
3.18776e-09
2.72387e-09
2.30783e-09
1.97561e-09
1.66202e-09
1.42824e-09
1.19514e-09
1.03252e-09
8.58094e-10
7.54166e-10
6.17781e-10
5.59489e-10
4.54658e-10
4.29314e-10
3.50994e-10
9.8743e-09
8.85967e-09
7.85428e-09
7.55715e-09
7.70991e-09
8.16192e-09
9.07605e-09
9.97197e-09
1.09519e-08
1.18281e-08
1.24849e-08
1.28922e-08
1.29853e-08
1.28085e-08
1.23353e-08
1.16149e-08
1.07392e-08
9.75729e-09
8.7178e-09
7.68297e-09
6.70378e-09
5.80744e-09
5.00499e-09
4.2947e-09
3.67665e-09
3.1345e-09
2.67602e-09
2.26658e-09
1.9377e-09
1.62802e-09
1.39879e-09
1.16589e-09
1.00952e-09
8.34462e-10
7.36155e-10
5.98477e-10
5.49949e-10
4.39067e-10
4.2854e-10
3.4112e-10
8.8658e-09
7.75088e-09
6.64949e-09
6.2048e-09
6.3267e-09
6.73138e-09
7.45942e-09
8.31142e-09
9.1848e-09
9.93334e-09
1.04495e-08
1.08113e-08
1.09785e-08
1.08702e-08
1.04463e-08
9.76215e-09
8.90929e-09
7.96802e-09
7.00141e-09
6.05783e-09
5.16941e-09
4.35324e-09
3.61557e-09
2.95765e-09
2.37629e-09
1.86774e-09
1.42889e-09
1.05123e-09
7.4749e-10
4.85972e-10
3.16099e-10
1.64298e-10
9.86599e-11
3.86249e-11
2.31386e-11
6.90613e-12
6.85076e-12
1.7614e-12
4.16493e-12
1.64867e-12
3.01515e-09
2.14838e-09
1.55423e-09
1.33812e-09
1.26323e-09
1.15805e-09
1.0556e-09
8.89792e-10
6.47323e-10
4.32001e-10
2.958e-10
2.32046e-10
1.96831e-10
1.5815e-10
1.12363e-10
6.99141e-11
3.79649e-11
1.75683e-11
6.66483e-12
1.9435e-12
3.71111e-13
2.86563e-14
2.5203e-15
3.21526e-14
1.09791e-13
1.84002e-13
2.51615e-13
2.42725e-13
2.44107e-13
1.87799e-13
1.42884e-13
1.09059e-13
5.96739e-14
4.26102e-14
2.00438e-14
1.08468e-14
2.79873e-15
1.67153e-15
8.64729e-18
5.14588e-17
3.06832e-11
2.12993e-11
1.52857e-11
1.34721e-11
1.2464e-11
9.57726e-12
6.37703e-12
3.20821e-12
6.56432e-13
8.73317e-15
9.83136e-14
5.06746e-13
9.37894e-13
1.22535e-12
1.27278e-12
1.09134e-12
8.16734e-13
5.58933e-13
3.56303e-13
2.12907e-13
1.20679e-13
6.5858e-14
3.51483e-14
1.83821e-14
9.65999e-15
4.88779e-15
2.64193e-15
1.24127e-15
7.14239e-16
3.03651e-16
1.61923e-16
7.5666e-17
2.43188e-17
1.36644e-17
2.76539e-18
8.6299e-19
5.31642e-19
2.66274e-19
6.02637e-18
3.2031e-18
2.96099e-14
1.51256e-14
9.56763e-15
7.96565e-15
7.14758e-15
3.89007e-15
1.33555e-15
5.50271e-17
1.05022e-15
1.21004e-14
2.73636e-14
3.2585e-14
2.8925e-14
2.13336e-14
1.29977e-14
6.49591e-15
2.7398e-15
9.96336e-16
3.05668e-16
7.39617e-17
1.24009e-17
1.07095e-18
1.11279e-19
4.56466e-19
1.30479e-18
1.98081e-18
2.47259e-18
2.39601e-18
2.29262e-18
1.93375e-18
1.57189e-18
1.28964e-18
1.01025e-18
7.89036e-19
7.12711e-19
5.53144e-19
5.40545e-19
4.25909e-19
6.01225e-19
3.24571e-19
)
;

boundaryField
{
    inlet
    {
        type            calculated;
        value           nonuniform List<scalar> 
20
(
1.62972e-34
7.151e-33
1.04976e-32
3.88944e-33
5.80294e-33
5.18239e-33
5.48717e-33
5.46502e-33
5.41515e-33
5.30616e-33
5.1732e-33
5.08465e-33
5.13183e-33
5.32622e-33
5.62558e-33
6.17713e-33
4.77894e-33
1.09185e-32
7.49255e-33
1.63275e-34
)
;
    }
    outlet
    {
        type            calculated;
        value           nonuniform List<scalar> 
27
(
1.52663e-33
1.28116e-33
9.40065e-34
4.40004e-34
9.32747e-35
7.95914e-36
1.03831e-39
5.30874e-36
7.13159e-35
3.60931e-34
8.48561e-34
1.20579e-33
1.45235e-33
1.64954e-33
1.81377e-33
1.94289e-33
5.55164e-34
4.57658e-36
3.54441e-38
9.63404e-41
6.63352e-41
2.90405e-38
3.60238e-36
4.27018e-34
2.00417e-33
1.88465e-33
1.72327e-33
)
;
    }
    lowerWall
    {
        type            fixedValue;
        value           uniform 0;
    }
    upperWall
    {
        type            fixedValue;
        value           uniform 0;
    }
    defaultFaces
    {
        type            empty;
    }
}


// ************************************************************************* //
