/*--------------------------------*- C++ -*----------------------------------*\
| =========                 |                                                 |
| \\      /  F ield         | OpenFOAM: The Open Source CFD Toolbox           |
|  \\    /   O peration     | Version:  2112                                  |
|   \\  /    A nd           | Website:  www.openfoam.com                      |
|    \\/     M anipulation  |                                                 |
\*---------------------------------------------------------------------------*/
FoamFile
{
    version     2.0;
    format      ascii;
    arch        "LSB;label=32;scalar=64";
    class       volScalarField;
    location    "0.14";
    object      p;
}
// * * * * * * * * * * * * * * * * * * * * * * * * * * * * * * * * * * * * * //

dimensions      [0 2 -2 0 0 0 0];

internalField   nonuniform List<scalar> 
1880
(
0.00383575
0.00369662
0.0036056
0.00355677
0.00352416
0.00350511
0.00349063
0.00346453
0.00343747
0.00342298
0.00341221
0.0033974
0.00338457
0.00338299
0.00338934
0.00340464
0.00342099
0.00344982
0.00347819
0.00352479
0.00357096
0.00364068
0.00371714
0.00382118
0.00394325
0.00410353
0.00429131
0.00454625
0.00481843
0.00523615
0.00365444
0.00361981
0.00358191
0.00354398
0.00350588
0.00348869
0.00348183
0.00345829
0.00342871
0.00341439
0.0034067
0.00339339
0.00337977
0.00337838
0.00338499
0.00340003
0.00341448
0.00344105
0.00346762
0.00351023
0.00355447
0.00361659
0.00369024
0.00377799
0.00389763
0.00402163
0.00419966
0.00437228
0.00457716
0.00476916
0.00362133
0.00359863
0.0035716
0.00353842
0.00350014
0.0034826
0.00347715
0.00345402
0.00342402
0.00341145
0.00340742
0.00339612
0.00338241
0.0033786
0.00338317
0.00339318
0.00340496
0.00342414
0.00344848
0.00348109
0.00352237
0.00357072
0.00363534
0.00370471
0.00379656
0.0038949
0.00401094
0.00413022
0.00423955
0.00431233
0.00356355
0.00355092
0.00353759
0.00351634
0.00348315
0.0034663
0.00346292
0.00344257
0.00341377
0.00340161
0.00339832
0.00338761
0.0033732
0.00336794
0.00337041
0.00337767
0.00338581
0.00339987
0.0034192
0.00344412
0.00347733
0.00351387
0.00356385
0.00361382
0.00368111
0.00374263
0.00381891
0.00387878
0.00391603
0.00393288
0.0035351
0.00352666
0.00351906
0.0035035
0.00347321
0.00345687
0.00345408
0.00343461
0.00340619
0.0033941
0.00339101
0.00338012
0.00336458
0.00335693
0.00335655
0.00335951
0.00336355
0.00337089
0.00338485
0.00339951
0.00342493
0.00344606
0.00348284
0.00351141
0.00355487
0.00358627
0.00362182
0.00363619
0.00362939
0.00358944
0.00350833
0.00350136
0.00349655
0.00348492
0.00345779
0.00344297
0.00344099
0.00342239
0.0033946
0.00338258
0.00337905
0.00336742
0.0033504
0.00334056
0.00333712
0.00333633
0.00333568
0.00333715
0.00334404
0.00335031
0.0033646
0.00337457
0.0033932
0.0034071
0.0034226
0.00343197
0.00343055
0.00341239
0.00336771
0.00329279
0.00348835
0.00348261
0.00347982
0.00347072
0.00344569
0.00343195
0.00343037
0.00341195
0.00338414
0.00337169
0.00336728
0.00335436
0.00333547
0.00332298
0.00331618
0.00331112
0.00330555
0.00330059
0.00330053
0.00329747
0.00330209
0.00329892
0.00330374
0.00329979
0.00329462
0.00328144
0.00325219
0.0032072
0.00313668
0.0030372
0.0034725
0.00346732
0.00346547
0.00345756
0.00343361
0.00342052
0.00341907
0.00340051
0.00337235
0.00335922
0.00335369
0.00333921
0.00331823
0.00330302
0.00329278
0.00328354
0.00327293
0.00326205
0.00325462
0.00324361
0.00323757
0.00322429
0.00321367
0.00319671
0.00317111
0.00313971
0.00308962
0.00302153
0.00293504
0.00281419
0.00346031
0.00345539
0.00345398
0.00344666
0.00342323
0.00341038
0.00340878
0.00338979
0.00336097
0.00334685
0.00333992
0.00332363
0.00330036
0.00328225
0.00326851
0.00325506
0.0032395
0.00322279
0.00320844
0.00318961
0.00317419
0.00315066
0.00312754
0.00309754
0.00305597
0.00300928
0.00294173
0.00285809
0.00275631
0.00262367
0.00345155
0.00344667
0.00344533
0.00343808
0.00341461
0.00340151
0.0033994
0.00337964
0.00334981
0.0033344
0.00332587
0.00330759
0.00328192
0.00326087
0.0032437
0.00322619
0.00320583
0.00318374
0.00316274
0.00313704
0.00311267
0.00308044
0.0030459
0.00300471
0.00295048
0.00289002
0.00281098
0.0027133
0.00260223
0.00246049
0.00344615
0.00344114
0.00343953
0.00343188
0.00340787
0.00339407
0.00339108
0.00337027
0.00333917
0.00332223
0.00331196
0.00329157
0.00326346
0.00323947
0.00321899
0.00319761
0.00317278
0.00314568
0.00311864
0.00308668
0.00305442
0.00301439
0.0029702
0.00291941
0.00285472
0.00278386
0.00269481
0.00258837
0.00246841
0.00232218
0.00344419
0.00343889
0.00343672
0.00342828
0.00340332
0.00338844
0.00338428
0.00336218
0.00332957
0.00331091
0.00329875
0.00327618
0.00324559
0.00321872
0.00319507
0.00317004
0.00314104
0.00310941
0.00307688
0.00303945
0.00300022
0.00295343
0.00290121
0.00284212
0.00276969
0.00268981
0.00259395
0.00248028
0.00235479
0.0022057
0.00344595
0.00344008
0.00343688
0.00342699
0.00340038
0.00338384
0.00337819
0.00335454
0.00332018
0.00329969
0.00328562
0.00326089
0.00322791
0.00319834
0.00317184
0.00314355
0.00311088
0.00307526
0.00303798
0.00299582
0.00295064
0.00289817
0.0028393
0.0027735
0.00269481
0.00260822
0.00250673
0.00238873
0.00225872
0.00210825
0.00345219
0.00344567
0.00344126
0.00342967
0.00340112
0.00338276
0.00337548
0.00335015
0.00331383
0.00329107
0.00327476
0.00324768
0.00321214
0.00317982
0.00315055
0.00311923
0.00308325
0.0030441
0.00300268
0.00295646
0.00290627
0.00284904
0.00278486
0.00271355
0.00263021
0.00253828
0.00243284
0.00231174
0.0021789
0.00202798
0.00346284
0.00345475
0.00344774
0.00343284
0.0034012
0.00338048
0.00337122
0.00334383
0.00330527
0.00328032
0.00326188
0.00323264
0.00319539
0.00316099
0.00312969
0.00309606
0.00305753
0.00301561
0.00297091
0.00292145
0.00286727
0.00280623
0.00273791
0.00266229
0.00257541
0.00247958
0.00237119
0.00224835
0.00211369
0.00196291
0.00348245
0.00347276
0.0034626
0.00344323
0.00340764
0.00338441
0.00337312
0.00334338
0.0033024
0.0032753
0.00325483
0.00322331
0.00318313
0.00314606
0.0031124
0.00307635
0.00303544
0.00299111
0.00294369
0.00289155
0.00283416
0.00277008
0.00269858
0.00261962
0.00253019
0.00243148
0.00232112
0.00219731
0.00206179
0.00191157
0.00350345
0.0034894
0.0034732
0.00344762
0.00340837
0.00338363
0.00337054
0.00333846
0.00329522
0.00326578
0.00324252
0.00320811
0.00316604
0.00312819
0.00309356
0.00305688
0.0030149
0.00296931
0.00292022
0.00286634
0.00280671
0.00274047
0.0026667
0.00258531
0.00249411
0.00239346
0.00228185
0.00215769
0.00202195
0.00187258
0.00355689
0.00353255
0.00350226
0.00346422
0.00341926
0.00339309
0.003377
0.00334101
0.00329529
0.00326411
0.0032385
0.00320171
0.00315806
0.00311846
0.00308199
0.00304291
0.00299942
0.00295273
0.00290227
0.00284702
0.00278567
0.00271787
0.00264245
0.00255935
0.00246697
0.00236504
0.00225278
0.00212864
0.0019931
0.00184485
0.00358573
0.00354942
0.00350809
0.00346492
0.00341956
0.00339309
0.00337484
0.00333743
0.00329084
0.00325631
0.00322547
0.00318461
0.00313917
0.00309938
0.00306385
0.00302622
0.00298437
0.00293842
0.00288791
0.00283246
0.00277033
0.00270184
0.00262552
0.00254137
0.00244843
0.00234577
0.00223324
0.00210956
0.00197448
0.00182696
0.00376547
0.00362448
0.00352977
0.00347541
0.00343523
0.00340648
0.00338015
0.00333957
0.00329484
0.0032595
0.00322481
0.00318191
0.00313659
0.00309617
0.003059
0.00302068
0.00297824
0.00293216
0.00288141
0.00282555
0.002763
0.00269408
0.00261729
0.00253267
0.00243937
0.00233654
0.00222386
0.00210085
0.00196678
0.00182153
0.00534697
0.00476781
0.00400539
0.0033677
0.00306626
0.0021832
0.000471431
0.000793873
-0.000834976
-0.00318923
0.00473265
0.00434498
0.00341409
0.00281309
0.00248343
0.00128143
0.000164093
4.63966e-05
-0.00177539
-0.00369124
0.00432711
0.00388727
0.00325869
0.00275651
0.00227429
0.0014118
0.000288444
-0.000234106
-0.00157732
-0.00282113
0.00385416
0.00348056
0.00289703
0.00234798
0.00189572
0.00111877
0.000195652
-0.000455094
-0.00135846
-0.00252665
0.00350779
0.0031579
0.00266459
0.00220855
0.00171411
0.00105112
0.000244152
-0.000401903
-0.00118727
-0.00213397
0.00318317
0.00284335
0.00241573
0.00193265
0.00146611
0.000852678
0.00016241
-0.000510426
-0.00112393
-0.00190545
0.00291287
0.00261085
0.00221549
0.00178668
0.00134062
0.000802619
0.000183622
-0.000416256
-0.000954713
-0.00161667
0.00267659
0.00238599
0.00202808
0.00161553
0.00118931
0.000698181
0.000151699
-0.000407307
-0.000879049
-0.00141365
0.00247429
0.00221476
0.00187946
0.00150114
0.00110662
0.000665598
0.000175211
-0.00031115
-0.000736511
-0.00119548
0.00230413
0.00205947
0.00174631
0.001396
0.00102403
0.000614933
0.000180512
-0.000257738
-0.000642949
-0.0010322
0.0021606
0.00193381
0.00164348
0.00131877
0.000972883
0.000599598
0.000211215
-0.000174512
-0.000526127
-0.000869932
0.00204151
0.00182721
0.00155564
0.00125361
0.000931479
0.000584931
0.000235271
-0.00011313
-0.000434494
-0.000741015
0.00194312
0.00173924
0.00148695
0.00120562
0.000905252
0.000586848
0.000268135
-4.5927e-05
-0.00034175
-0.000621125
0.0018629
0.00166756
0.00143139
0.001168
0.00088756
0.00059199
0.00029839
9.56098e-06
-0.000264114
-0.00052192
0.00179848
0.00160982
0.00138784
0.00114104
0.000878112
0.000603172
0.000330119
6.24358e-05
-0.000193344
-0.000434312
0.00174813
0.00156477
0.00135465
0.00112193
0.000874399
0.000616723
0.000359801
0.000107696
-0.000133667
-0.000361572
0.00171007
0.00153059
0.00132961
0.00110898
0.000874816
0.000631407
0.000387328
0.000147382
-8.27799e-05
-0.000300664
0.00168397
0.00150765
0.00131383
0.00110275
0.000879393
0.000647167
0.000412375
0.000180843
-4.12779e-05
-0.00025178
0.00166672
0.00149254
0.00130395
0.00110044
0.000885472
0.000661675
0.000434086
0.000208693
-8.50895e-06
-0.000214029
0.00166435
0.00149292
0.00130735
0.00110751
0.000896112
0.000676034
0.000452314
0.000229794
1.46057e-05
-0.000190984
-0.00654953
-0.00706629
-0.00816825
-0.0101999
-0.0112635
-0.0109022
-0.00887391
-0.00605423
-0.0031705
-0.000798202
0.000839128
0.00174974
0.00213328
0.0021953
0.00208584
0.00190231
0.00169789
0.0014987
0.00131607
0.00115401
0.00101256
0.000890027
0.000784084
0.000692292
0.000612377
0.000542168
0.00048032
0.000425272
0.000375864
0.000331094
0.000290186
0.000252479
0.000217389
0.000184496
0.00015334
0.000123635
9.49938e-05
6.72226e-05
4.00435e-05
1.32948e-05
-0.00653871
-0.00703735
-0.00839434
-0.0107542
-0.0120927
-0.011708
-0.00957621
-0.00650974
-0.00349079
-0.000979742
0.000724799
0.0016828
0.00208006
0.00214685
0.00204082
0.00186165
0.00166247
0.00146883
0.00129165
0.00113432
0.000996847
0.000877568
0.000774203
0.00068441
0.000606044
0.000537336
0.000476465
0.000422152
0.000373317
0.000329011
0.000288474
0.000251081
0.000216249
0.000183576
0.000152607
0.00012303
9.45527e-05
6.69152e-05
3.9864e-05
1.3241e-05
-0.00607421
-0.00749429
-0.0094157
-0.0125381
-0.0140368
-0.0135267
-0.0111139
-0.00755778
-0.00419454
-0.00142363
0.000442651
0.00149936
0.00193853
0.0020236
0.00193172
0.00176779
0.00158466
0.00140621
0.00124223
0.00109582
0.000966998
0.000854403
0.000756136
0.000670217
0.000594807
0.000528285
0.000469156
0.000416213
0.000368459
0.00032503
0.000285207
0.000248406
0.000214075
0.00018182
0.00015122
0.000121968
9.37745e-05
6.63928e-05
3.95798e-05
1.31689e-05
-0.00688414
-0.00771842
-0.0100771
-0.0144135
-0.016672
-0.0162195
-0.0134689
-0.00915236
-0.00522359
-0.00208037
4.3e-06
0.00120586
0.00171293
0.0018316
0.00176764
0.00163168
0.00147497
0.00131944
0.00117424
0.00104273
0.000925486
0.000821795
0.000730355
0.000649686
0.000578331
0.000514944
0.000458298
0.000407338
0.000361172
0.00031904
0.00028028
0.000244362
0.000210777
0.000179151
0.000149099
0.000120327
9.25586e-05
6.55617e-05
3.91001e-05
1.30166e-05
-0.00624458
-0.00785806
-0.0110956
-0.0163614
-0.0189177
-0.0181991
-0.0152031
-0.01041
-0.00607481
-0.00272337
-0.000475276
0.00084092
0.00141486
0.00157492
0.00154918
0.00145244
0.00133263
0.00120812
0.0010875
0.000975004
0.000872366
0.000779887
0.000697084
0.000623096
0.000556931
0.000497596
0.000444154
0.000395754
0.00035165
0.000311198
0.000273822
0.000239053
0.000206439
0.000175635
0.000146297
0.000118151
9.09381e-05
6.44452e-05
3.84479e-05
1.28018e-05
-0.00700753
-0.00844405
-0.0113762
-0.0162674
-0.0184964
-0.0178225
-0.0150863
-0.0105636
-0.00637322
-0.00319626
-0.00101221
0.000363165
0.00102106
0.0012513
0.00128408
0.00124089
0.00116735
0.00108016
0.000988355
0.000897735
0.000811655
0.000731761
0.000658603
0.000592081
0.000531756
0.000477038
0.000427284
0.000381861
0.000340181
0.00030172
0.000265994
0.000232604
0.000201157
0.000171349
0.000142873
0.000115485
8.89478e-05
6.30689e-05
3.76418e-05
1.25355e-05
-0.00614592
-0.00756295
-0.0102538
-0.0151022
-0.0164686
-0.0156586
-0.0133844
-0.00972494
-0.00617119
-0.00340695
-0.00152247
-0.000274241
0.000421195
0.000778087
0.00094457
0.000994299
0.000983573
0.00093939
0.000878929
0.000811615
0.000743206
0.000676997
0.000614563
0.000556473
0.000502797
0.000453354
0.000407824
0.000365813
0.000326913
0.000290737
0.000256909
0.000225108
0.000195008
0.000166352
0.000138876
0.000112367
8.66164e-05
6.14537e-05
3.6694e-05
1.22214e-05
-0.00550729
-0.00429847
-0.0095381
-0.0141662
-0.0149368
-0.0135872
-0.0115416
-0.00866959
-0.00575593
-0.00341165
-0.00178005
-0.000713474
-0.000124515
0.00023241
0.000506521
0.000693334
0.000776419
0.000789558
0.000765225
0.000722789
0.000672561
0.000620017
0.000568052
0.000518198
0.000471159
0.00042713
0.000386039
0.000347691
0.000311834
0.000278196
0.000246497
0.000216494
0.000187926
0.000160587
0.000134257
0.000108759
8.3915e-05
5.95796e-05
3.55931e-05
1.18561e-05
-0.00475367
-0.00573361
-0.00887443
-0.0121629
-0.0125271
-0.0112251
-0.00956364
-0.00729906
-0.00498775
-0.00315277
-0.00180845
-0.000907776
-0.000386137
-4.78806e-05
0.00023108
0.000441834
0.000566186
0.000626229
0.000640197
0.000624554
0.000592869
0.00055475
0.00051466
0.000474521
0.000435317
0.000397579
0.000361571
0.00032737
0.000294927
0.000264125
0.000234802
0.000206805
0.000179949
0.000154084
0.000129041
0.000104679
8.08572e-05
5.74564e-05
3.43447e-05
1.14416e-05
-0.00389874
-0.00475059
-0.00678539
-0.00889288
-0.00935625
-0.00871583
-0.0077166
-0.00618354
-0.00441763
-0.00289193
-0.00174576
-0.000965827
-0.000476296
-0.00017204
7.32203e-05
0.000291329
0.000437158
0.000510008
0.000535841
0.000536259
0.000521683
0.000496711
0.000466123
0.000433338
0.000400276
0.000367857
0.00033646
0.000306216
0.000277145
0.000249217
0.000222346
0.000196448
0.000171398
0.000147099
0.000123429
0.000100284
7.75597e-05
5.51649e-05
3.29965e-05
1.09938e-05
-0.0032507
-0.00410488
-0.0054913
-0.00682805
-0.00724675
-0.00688486
-0.00621965
-0.0051893
-0.00388372
-0.0026422
-0.00173652
-0.00108722
-0.000629895
-0.000269059
7.45892e-05
0.000313168
0.000406031
0.000446035
0.000461306
0.000458962
0.000447148
0.000430026
0.000409369
0.000386228
0.000361427
0.000335709
0.000309707
0.000283859
0.000258431
0.000233555
0.000209261
0.00018556
0.000162398
0.000139738
0.000117507
9.56418e-05
7.40739e-05
5.27407e-05
3.15694e-05
1.05198e-05
-0.00276587
-0.00348858
-0.00448895
-0.00530031
-0.00556752
-0.00546882
-0.00503429
-0.00429235
-0.00338692
-0.00250598
-0.00174534
-0.00115869
-0.000764734
-0.000550882
-0.000384251
-0.000146907
0.000116999
0.000298533
0.000381546
0.000404825
0.000401448
0.000387674
0.000369384
0.000348987
0.000327637
0.000305841
0.000283812
0.000261684
0.000239582
0.000217617
0.000195857
0.000174355
0.000153108
0.000132123
0.000111371
9.08251e-05
7.04532e-05
5.02208e-05
3.00853e-05
1.00267e-05
-0.00238233
-0.00295147
-0.00371825
-0.00432289
-0.00454684
-0.00445531
-0.00418815
-0.00365743
-0.00296913
-0.00228492
-0.00164859
-0.00105239
-0.000691209
-0.000570256
-0.000423005
-0.000180819
4.16259e-05
0.000172113
0.000241546
0.000278193
0.000296849
0.00030449
0.000304227
0.000297885
0.000286942
0.000272732
0.000256388
0.000238724
0.000220274
0.000201372
0.000182216
0.000162951
0.000143646
0.000124358
0.000105108
8.59034e-05
6.67506e-05
4.76422e-05
2.85661e-05
9.52192e-06
-0.00205752
-0.00251407
-0.00308151
-0.003527
-0.00372276
-0.00371306
-0.0035177
-0.00310284
-0.00258815
-0.00207226
-0.00160239
-0.00119425
-0.000885953
-0.000637458
-0.000347943
-8.04414e-05
8.97733e-05
0.000183088
0.000234144
0.000261415
0.000273558
0.000276065
0.000272541
0.000265281
0.0002556
0.000244104
0.000231084
0.000216782
0.000201454
0.000185347
0.000168661
0.000151566
0.000134168
0.000116563
9.88098e-05
8.09485e-05
6.30195e-05
4.50423e-05
2.70336e-05
9.01264e-06
-0.0017825
-0.00215021
-0.00259824
-0.00297037
-0.00313134
-0.00312557
-0.00300676
-0.00272239
-0.00231405
-0.00188754
-0.00147407
-0.0010995
-0.000828513
-0.000617533
-0.000448513
-0.000292001
-0.000144453
-2.49251e-05
6.2976e-05
0.00012481
0.000166761
0.000193853
0.000209655
0.000216719
0.000217134
0.000212708
0.000204889
0.000194671
0.000182717
0.000169473
0.000155254
0.000140303
0.000124785
0.000108837
9.25612e-05
7.60279e-05
5.93115e-05
4.24569e-05
2.55092e-05
8.50599e-06
-0.0015348
-0.00184611
-0.00218657
-0.00248339
-0.00264271
-0.00266657
-0.00257824
-0.00236173
-0.00205405
-0.00171867
-0.00141387
-0.0011483
-0.00087529
-0.000629925
-0.000409754
-0.000222959
-8.31038e-05
1.38242e-05
7.98641e-05
0.000124308
0.000153237
0.000171188
0.000181578
0.000186726
0.00018796
0.000185944
0.000181137
0.000173969
0.000164863
0.000154193
0.000142268
0.000129351
0.000115636
0.00010129
8.64476e-05
7.12083e-05
5.56769e-05
3.99214e-05
2.40137e-05
8.00888e-06
-0.00132837
-0.001596
-0.00187825
-0.00213239
-0.0022715
-0.0023004
-0.00224538
-0.00208876
-0.00185522
-0.00158662
-0.00131601
-0.00105295
-0.000820687
-0.000629385
-0.000475865
-0.000340473
-0.00021982
-0.000119772
-3.96822e-05
2.32426e-05
7.13138e-05
0.000106606
0.000131063
0.000146588
0.000155115
0.000158371
0.000157656
0.000153866
0.000147652
0.000139498
0.000129783
0.000118812
0.000106822
9.40104e-05
8.05456e-05
6.65517e-05
5.2163e-05
3.74689e-05
2.25668e-05
7.52791e-06
-0.00114241
-0.00137867
-0.00160892
-0.00181582
-0.0019537
-0.00199901
-0.00196877
-0.001855
-0.00166609
-0.00144627
-0.00123226
-0.00103853
-0.000842561
-0.000651585
-0.000482092
-0.000331632
-0.00020882
-0.000113822
-4.19502e-05
1.18147e-05
5.16927e-05
8.11178e-05
0.000102703
0.000118142
0.000128429
0.000134282
0.000136365
0.000135279
0.000131564
0.000125673
0.000117988
0.000108829
9.84566e-05
8.70915e-05
7.49295e-05
6.21172e-05
4.88147e-05
3.51312e-05
2.11872e-05
7.06931e-06
-0.000986905
-0.0012007
-0.00140366
-0.00159112
-0.00171293
-0.00176059
-0.00174423
-0.00166077
-0.00152076
-0.00134875
-0.00116589
-0.000980374
-0.000800129
-0.000640469
-0.000499918
-0.000380641
-0.000276756
-0.000187407
-0.000112437
-5.0754e-05
-1.18529e-06
3.7419e-05
6.64126e-05
8.74016e-05
0.000101943
0.000111277
0.000116357
0.000117919
0.000116564
0.000112782
0.000106979
9.95004e-05
9.06306e-05
8.06124e-05
6.96662e-05
5.79587e-05
4.56737e-05
3.29376e-05
1.98925e-05
6.63895e-06
-0.000851333
-0.00104784
-0.00122747
-0.00138904
-0.00150547
-0.00155922
-0.00155825
-0.00150237
-0.00139042
-0.00124418
-0.00109198
-0.000942938
-0.000796867
-0.000653298
-0.000519263
-0.000398517
-0.000292916
-0.000204614
-0.000132516
-7.42726e-05
-2.74565e-05
9.98543e-06
3.95285e-05
6.22509e-05
7.90856e-05
9.08682e-05
9.83466e-05
0.000102162
0.000102882
0.000100984
9.68823e-05
9.09302e-05
8.34322e-05
7.46475e-05
6.48175e-05
5.41262e-05
4.27781e-05
3.09151e-05
1.86988e-05
6.24222e-06
-0.000737333
-0.000921512
-0.00108693
-0.00123461
-0.00134304
-0.00139994
-0.00140858
-0.00136911
-0.00128347
-0.00116917
-0.00104253
-0.000911213
-0.000777171
-0.000646333
-0.00052562
-0.000417188
-0.00032256
-0.00024022
-0.00016924
-0.000109196
-5.94109e-05
-1.88722e-05
1.35623e-05
3.89731e-05
5.83289e-05
7.24749e-05
8.21541e-05
8.80005e-05
9.05781e-05
9.03649e-05
8.77854e-05
8.32022e-05
7.69368e-05
6.92624e-05
6.04385e-05
5.06646e-05
4.01628e-05
2.90885e-05
1.7621e-05
5.88411e-06
-0.000640423
-0.000815668
-0.000970446
-0.0011063
-0.00120905
-0.00126759
-0.00128465
-0.00126125
-0.00119649
-0.00110149
-0.000992418
-0.000878762
-0.000762422
-0.000647104
-0.000537328
-0.000436111
-0.000344895
-0.000264165
-0.000194107
-0.000134343
-8.40797e-05
-4.23757e-05
-8.30612e-06
1.89918e-05
4.03237e-05
5.64259e-05
6.79757e-05
7.55726e-05
7.97638e-05
8.10214e-05
7.97752e-05
7.63934e-05
7.12121e-05
6.45155e-05
5.65784e-05
4.76139e-05
3.78587e-05
2.748e-05
1.66724e-05
5.56921e-06
-0.000560053
-0.000729608
-0.000877341
-0.00100479
-0.00110281
-0.00116329
-0.00118702
-0.00117434
-0.00112494
-0.00104788
-0.000956245
-0.000857471
-0.000753865
-0.00064864
-0.000546487
-0.00045099
-0.00036388
-0.000285759
-0.000216848
-0.000157048
-0.000105938
-6.28951e-05
-2.72209e-05
1.79994e-06
2.48738e-05
4.26733e-05
5.58345e-05
6.49345e-05
7.05087e-05
7.30261e-05
7.29221e-05
7.05686e-05
6.63165e-05
6.04575e-05
5.328e-05
4.50098e-05
3.58935e-05
2.61097e-05
1.58655e-05
5.30208e-06
-0.000493986
-0.000659855
-0.00080325
-0.000925013
-0.00101957
-0.00108096
-0.00110944
-0.00110568
-0.00106949
-0.00100714
-0.0009288
-0.000841401
-0.000747911
-0.000651392
-0.000556053
-0.000465369
-0.000381287
-0.000304768
-0.000236356
-0.00017625
-0.000124288
-8.00488e-05
-4.29857e-05
-1.24936e-05
1.2055e-05
3.12842e-05
4.57956e-05
5.61514e-05
6.28764e-05
6.64398e-05
6.72829e-05
6.5779e-05
6.22961e-05
5.71277e-05
5.05768e-05
4.28792e-05
3.42889e-05
2.49938e-05
1.52099e-05
5.08529e-06
-0.000441742
-0.000606287
-0.000747061
-0.000864915
-0.000956707
-0.00101867
-0.00105105
-0.00105458
-0.00102893
-0.000978239
-0.00091057
-0.000832277
-0.000746666
-0.000656735
-0.000566342
-0.000478941
-0.000396768
-0.000321119
-0.000252784
-0.000192165
-0.000139293
-9.39167e-05
-5.56096e-05
-2.38479e-05
1.93985e-06
2.23481e-05
3.79543e-05
4.93191e-05
5.69573e-05
6.13475e-05
6.29336e-05
6.20928e-05
5.92107e-05
5.45761e-05
4.85122e-05
4.12566e-05
3.3072e-05
2.41534e-05
1.47218e-05
4.92936e-06
-0.000401878
-0.000567112
-0.000708024
-0.000823834
-0.000913583
-0.000975671
-0.00101066
-0.00101947
-0.00100221
-0.000961654
-0.000903362
-0.000832421
-0.000752412
-0.000666718
-0.000579164
-0.00049325
-0.000411525
-0.000335638
-0.000266616
-0.000205024
-0.000151027
-0.000104477
-6.50175e-05
-3.21604e-05
-5.35734e-06
1.59819e-05
3.24241e-05
4.45448e-05
5.28489e-05
5.78381e-05
5.99518e-05
5.95777e-05
5.71179e-05
5.28501e-05
4.71238e-05
4.01708e-05
3.22645e-05
2.36026e-05
1.44157e-05
4.84612e-06
-0.000381279
-0.000547439
-0.000688134
-0.000803122
-0.000891615
-0.000953399
-0.000989693
-0.00100111
-0.000987693
-0.000951993
-0.000898574
-0.000831684
-0.000754917
-0.000671837
-0.000586144
-0.000501277
-0.000419922
-0.000343945
-0.00027454
-0.000212383
-0.000157727
-0.000110488
-7.03547e-05
-3.68617e-05
-9.47263e-06
1.23985e-05
2.93163e-05
4.18634e-05
5.05408e-05
5.58667e-05
5.82723e-05
5.81626e-05
5.59369e-05
5.1878e-05
4.63412e-05
3.95554e-05
3.18039e-05
2.32779e-05
1.42248e-05
4.7867e-06
)
;

boundaryField
{
    inlet
    {
        type            zeroGradient;
    }
    outlet
    {
        type            fixedValue;
        value           uniform 0;
    }
    lowerWall
    {
        type            zeroGradient;
    }
    upperWall
    {
        type            zeroGradient;
    }
    defaultFaces
    {
        type            empty;
    }
}


// ************************************************************************* //
