/*--------------------------------*- C++ -*----------------------------------*\
| =========                 |                                                 |
| \\      /  F ield         | OpenFOAM: The Open Source CFD Toolbox           |
|  \\    /   O peration     | Version:  2112                                  |
|   \\  /    A nd           | Website:  www.openfoam.com                      |
|    \\/     M anipulation  |                                                 |
\*---------------------------------------------------------------------------*/
FoamFile
{
    version     2.0;
    format      ascii;
    arch        "LSB;label=32;scalar=64";
    class       surfaceScalarField;
    location    "0.14";
    object      phi;
}
// * * * * * * * * * * * * * * * * * * * * * * * * * * * * * * * * * * * * * //

dimensions      [0 3 -1 0 0 0 0];

oriented        oriented;

internalField   nonuniform List<scalar> 
3653
(
9.92739e-07
7.26141e-09
9.79556e-07
1.31822e-08
9.64298e-07
1.5258e-08
9.48603e-07
1.56958e-08
9.32316e-07
1.62862e-08
9.15575e-07
1.67414e-08
8.99076e-07
1.64991e-08
8.82394e-07
1.66823e-08
8.64269e-07
1.81241e-08
8.4513e-07
1.91391e-08
8.2693e-07
1.82007e-08
8.11397e-07
1.55325e-08
7.98659e-07
1.27381e-08
7.89013e-07
9.64554e-09
7.80948e-07
8.06561e-09
7.75388e-07
5.55937e-09
7.68636e-07
6.7523e-09
7.64555e-07
4.08111e-09
7.56005e-07
8.55049e-09
7.51697e-07
4.30774e-09
7.3972e-07
1.19769e-08
7.32987e-07
6.73293e-09
7.16568e-07
1.64195e-08
7.04249e-07
1.23184e-08
6.80707e-07
2.35418e-08
6.57928e-07
2.2779e-08
6.21098e-07
3.68308e-08
5.72584e-07
4.85132e-08
5.11929e-07
6.06555e-08
1.23019e-07
3.8891e-07
1.00293e-06
4.33395e-09
1.00643e-06
9.68286e-09
1.00897e-06
1.27186e-08
1.01056e-06
1.4102e-08
1.01173e-06
1.51154e-08
1.01237e-06
1.60999e-08
1.01236e-06
1.65154e-08
1.01208e-06
1.69552e-08
1.0119e-06
1.83052e-08
1.01142e-06
1.96259e-08
1.01004e-06
1.95754e-08
1.00769e-06
1.78791e-08
1.00463e-06
1.57978e-08
1.00106e-06
1.32159e-08
9.97077e-07
1.20524e-08
9.92844e-07
9.79256e-09
9.88039e-07
1.15577e-08
9.83223e-07
8.89639e-09
9.76658e-07
1.51155e-08
9.7108e-07
9.88593e-09
9.61383e-07
2.16738e-08
9.53936e-07
1.41802e-08
9.40668e-07
2.9687e-08
9.27499e-07
2.54877e-08
9.10794e-07
4.02468e-08
8.87348e-07
4.62251e-08
8.60572e-07
6.36063e-08
8.32993e-07
7.60931e-08
7.71456e-07
1.22193e-07
1.26101e-07
7.68373e-07
1.00175e-06
2.58111e-09
1.00476e-06
6.68009e-09
1.0077e-06
9.77397e-09
1.01015e-06
1.16477e-08
1.01236e-06
1.2912e-08
1.0144e-06
1.40563e-08
1.01612e-06
1.47997e-08
1.01771e-06
1.53596e-08
1.01965e-06
1.6372e-08
1.02171e-06
1.75599e-08
1.02308e-06
1.82045e-08
1.02317e-06
1.77965e-08
1.02193e-06
1.70335e-08
1.01947e-06
1.5671e-08
1.01624e-06
1.52875e-08
1.0121e-06
1.39281e-08
1.00794e-06
1.57265e-08
1.00279e-06
1.4039e-08
9.97915e-07
1.99931e-08
9.91755e-07
1.60457e-08
9.84939e-07
2.84898e-08
9.77885e-07
2.12348e-08
9.67153e-07
4.04187e-08
9.58449e-07
3.41913e-08
9.43118e-07
5.55785e-08
9.30041e-07
5.93022e-08
9.11717e-07
8.19303e-08
8.90628e-07
9.71816e-08
8.75967e-07
1.36854e-07
1.55442e-07
8.46626e-07
1.00081e-06
1.76907e-09
1.00249e-06
5.00532e-09
1.00458e-06
7.67771e-09
1.00663e-06
9.59573e-09
1.00851e-06
1.10401e-08
1.01031e-06
1.22548e-08
1.012e-06
1.31038e-08
1.01366e-06
1.37088e-08
1.01548e-06
1.45514e-08
1.01735e-06
1.5687e-08
1.01876e-06
1.67896e-08
1.01927e-06
1.72922e-08
1.01878e-06
1.75248e-08
1.01734e-06
1.71113e-08
1.0152e-06
1.7425e-08
1.0123e-06
1.68281e-08
1.00918e-06
1.88475e-08
1.00507e-06
1.81422e-08
1.00135e-06
2.37134e-08
9.95634e-07
2.17664e-08
9.91322e-07
3.28017e-08
9.8328e-07
2.92761e-08
9.7783e-07
4.5869e-08
9.67473e-07
4.45479e-08
9.59516e-07
6.35363e-08
9.4837e-07
7.04478e-08
9.36688e-07
9.36123e-08
9.27148e-07
1.06722e-07
9.16248e-07
1.47754e-07
1.59634e-07
9.12056e-07
1.0004e-06
1.36525e-09
1.00152e-06
3.88984e-09
1.00314e-06
6.05572e-09
1.0049e-06
7.83572e-09
1.00659e-06
9.35167e-09
1.00824e-06
1.06036e-08
1.00984e-06
1.15016e-08
1.01138e-06
1.21677e-08
1.01296e-06
1.29716e-08
1.01456e-06
1.40947e-08
1.01593e-06
1.54113e-08
1.01674e-06
1.64908e-08
1.01688e-06
1.7376e-08
1.01617e-06
1.78219e-08
1.01496e-06
1.86385e-08
1.01281e-06
1.89783e-08
1.01064e-06
2.10153e-08
1.00725e-06
2.15309e-08
1.00453e-06
2.64376e-08
9.9973e-07
2.65657e-08
9.96579e-07
3.5953e-08
9.90024e-07
3.58317e-08
9.86526e-07
4.93664e-08
9.78058e-07
5.30162e-08
9.74593e-07
6.70015e-08
9.64207e-07
8.0833e-08
9.62432e-07
9.53873e-08
9.52062e-07
1.17092e-07
9.53695e-07
1.4612e-07
1.62474e-07
9.50855e-07
1.00033e-06
1.03772e-09
1.00115e-06
3.06483e-09
1.00238e-06
4.82745e-09
1.00384e-06
6.38079e-09
1.00535e-06
7.83476e-09
1.00687e-06
9.0835e-09
1.00837e-06
1.00086e-08
1.00982e-06
1.07153e-08
1.01127e-06
1.15167e-08
1.01271e-06
1.26534e-08
1.01403e-06
1.40951e-08
1.01498e-06
1.55437e-08
1.01548e-06
1.68686e-08
1.01535e-06
1.7961e-08
1.01481e-06
1.91734e-08
1.01349e-06
2.0295e-08
1.01214e-06
2.23652e-08
1.0097e-06
2.39756e-08
1.00791e-06
2.82261e-08
1.00423e-06
3.02518e-08
1.0023e-06
3.78808e-08
9.97398e-07
4.07308e-08
9.9513e-07
5.16345e-08
9.90145e-07
5.80011e-08
9.86559e-07
7.05874e-08
9.83684e-07
8.37079e-08
9.79662e-07
9.94101e-08
9.79291e-07
1.17463e-07
9.8211e-07
1.43301e-07
1.60602e-07
9.83982e-07
1.00023e-06
8.05643e-10
1.00087e-06
2.42719e-09
1.00185e-06
3.8458e-09
1.0031e-06
5.12854e-09
1.0045e-06
6.43859e-09
1.00594e-06
7.64474e-09
1.00738e-06
8.57014e-09
1.00881e-06
9.28091e-09
1.01027e-06
1.00615e-08
1.01172e-06
1.11982e-08
1.01312e-06
1.27002e-08
1.01427e-06
1.43936e-08
1.01512e-06
1.60178e-08
1.01546e-06
1.76177e-08
1.0155e-06
1.9132e-08
1.01489e-06
2.09101e-08
1.01424e-06
2.3013e-08
1.0127e-06
2.55128e-08
1.01171e-06
2.92208e-08
1.00924e-06
3.27189e-08
1.00836e-06
3.87608e-08
1.00495e-06
4.41369e-08
1.00462e-06
5.19641e-08
1.0008e-06
6.18272e-08
1.00126e-06
7.013e-08
9.98527e-07
8.64372e-08
1.00046e-06
9.74765e-08
1.00143e-06
1.1649e-07
1.00686e-06
1.37873e-07
1.52982e-07
1.01448e-06
1.00019e-06
6.1208e-10
1.00074e-06
1.87951e-09
1.00161e-06
2.97817e-09
1.00274e-06
3.99576e-09
1.00406e-06
5.11658e-09
1.00547e-06
6.23701e-09
1.0069e-06
7.14064e-09
1.00834e-06
7.84023e-09
1.00981e-06
8.58864e-09
1.01131e-06
9.70265e-09
1.0128e-06
1.12132e-08
1.01414e-06
1.30477e-08
1.01529e-06
1.48662e-08
1.01607e-06
1.68416e-08
1.01661e-06
1.85907e-08
1.01664e-06
2.08781e-08
1.01664e-06
2.30143e-08
1.01597e-06
2.61814e-08
1.01573e-06
2.94667e-08
1.01448e-06
3.39674e-08
1.01436e-06
3.88809e-08
1.01288e-06
4.56166e-08
1.01302e-06
5.18256e-08
1.01242e-06
6.24204e-08
1.01273e-06
6.98275e-08
1.01453e-06
8.46317e-08
1.01673e-06
9.52757e-08
1.02093e-06
1.12292e-07
1.02957e-06
1.29238e-07
1.46079e-07
1.03647e-06
1.00018e-06
4.35271e-10
1.00068e-06
1.37143e-09
1.00149e-06
2.17463e-09
1.00256e-06
2.9205e-09
1.00385e-06
3.82683e-09
1.00526e-06
4.83159e-09
1.00671e-06
5.68885e-09
1.0082e-06
6.35449e-09
1.00974e-06
7.04706e-09
1.01133e-06
8.10657e-09
1.01296e-06
9.58335e-09
1.01453e-06
1.14834e-08
1.01597e-06
1.34234e-08
1.01715e-06
1.56639e-08
1.01814e-06
1.75997e-08
1.01876e-06
2.02543e-08
1.01934e-06
2.24387e-08
1.01947e-06
2.60505e-08
1.01992e-06
2.90146e-08
1.01972e-06
3.41665e-08
1.0205e-06
3.81084e-08
1.0203e-06
4.58155e-08
1.02176e-06
5.03626e-08
1.02246e-06
6.17233e-08
1.02485e-06
6.74389e-08
1.02785e-06
8.16318e-08
1.03226e-06
9.08564e-08
1.03877e-06
1.05781e-07
1.04726e-06
1.20753e-07
1.34656e-07
1.05868e-06
1.00017e-06
2.62561e-10
1.00067e-06
8.71861e-10
1.00147e-06
1.38088e-09
1.00253e-06
1.852e-09
1.00384e-06
2.52334e-09
1.00529e-06
3.38305e-09
1.0068e-06
4.17059e-09
1.00837e-06
4.78519e-09
1.01001e-06
5.40762e-09
1.01173e-06
6.3877e-09
1.01352e-06
7.79484e-09
1.01531e-06
9.6971e-09
1.01703e-06
1.17023e-08
1.01858e-06
1.41161e-08
1.01997e-06
1.62023e-08
1.02113e-06
1.90982e-08
1.02222e-06
2.13458e-08
1.02308e-06
2.5195e-08
1.02413e-06
2.79579e-08
1.02493e-06
3.33702e-08
1.02635e-06
3.66903e-08
1.02755e-06
4.46196e-08
1.02964e-06
4.82634e-08
1.03215e-06
5.92204e-08
1.03535e-06
6.42387e-08
1.04008e-06
7.68961e-08
1.04595e-06
8.49878e-08
1.05309e-06
9.86446e-08
1.06388e-06
1.09957e-07
1.24107e-07
1.07443e-06
1.00018e-06
8.31224e-11
1.0007e-06
3.50339e-10
1.00153e-06
5.56076e-10
1.00264e-06
7.3908e-10
1.004e-06
1.15908e-09
1.00553e-06
1.85351e-09
1.00715e-06
2.55617e-09
1.00882e-06
3.10913e-09
1.01058e-06
3.6496e-09
1.01244e-06
4.52532e-09
1.01441e-06
5.82933e-09
1.01642e-06
7.68389e-09
1.01841e-06
9.71531e-09
1.02029e-06
1.22321e-08
1.02205e-06
1.44409e-08
1.02367e-06
1.7478e-08
1.02523e-06
1.97942e-08
1.0267e-06
2.3721e-08
1.02831e-06
2.63449e-08
1.02992e-06
3.17609e-08
1.032e-06
3.46111e-08
1.03421e-06
4.24079e-08
1.03713e-06
4.53425e-08
1.04075e-06
5.56087e-08
1.04501e-06
5.99719e-08
1.05085e-06
7.10594e-08
1.05756e-06
7.82805e-08
1.06623e-06
8.99717e-08
1.0767e-06
9.94884e-08
1.11463e-07
1.08934e-06
1.0002e-06
-1.12674e-10
1.00077e-06
-2.20385e-10
1.00166e-06
-3.38733e-10
1.00285e-06
-4.54353e-10
1.00432e-06
-3.02647e-10
1.00596e-06
2.10097e-10
1.0077e-06
8.1628e-10
1.00951e-06
1.29568e-09
1.01142e-06
1.74371e-09
1.01345e-06
2.495e-09
1.01561e-06
3.67228e-09
1.01785e-06
5.44269e-09
1.02009e-06
7.47359e-09
1.02228e-06
1.00462e-08
1.02435e-06
1.23642e-08
1.02636e-06
1.54689e-08
1.0283e-06
1.78574e-08
1.03029e-06
2.17293e-08
1.03237e-06
2.42684e-08
1.03467e-06
2.94562e-08
1.03728e-06
3.20034e-08
1.04038e-06
3.93071e-08
1.04392e-06
4.18042e-08
1.04848e-06
5.10455e-08
1.05356e-06
5.48917e-08
1.06011e-06
6.45074e-08
1.06778e-06
7.06112e-08
1.07678e-06
8.09779e-08
1.08809e-06
8.81789e-08
9.90801e-08
1.10047e-06
1.00023e-06
-3.41375e-10
1.00089e-06
-8.77797e-10
1.00191e-06
-1.36669e-09
1.00326e-06
-1.80443e-09
1.00488e-06
-1.91405e-09
1.00666e-06
-1.57687e-09
1.00856e-06
-1.07807e-09
1.01052e-06
-6.71485e-10
1.01258e-06
-3.10431e-10
1.01477e-06
3.04808e-10
1.01711e-06
1.32953e-09
1.01956e-06
2.9983e-09
1.02201e-06
5.02214e-09
1.02444e-06
7.6171e-09
1.02677e-06
1.00303e-08
1.02909e-06
1.31505e-08
1.03134e-06
1.56048e-08
1.03374e-06
1.93272e-08
1.03621e-06
2.1798e-08
1.03907e-06
2.6602e-08
1.04214e-06
2.89291e-08
1.04592e-06
3.55247e-08
1.05001e-06
3.77138e-08
1.05528e-06
4.57762e-08
1.06098e-06
4.91936e-08
1.06818e-06
5.73145e-08
1.07625e-06
6.25362e-08
1.08594e-06
7.12905e-08
1.09711e-06
7.70097e-08
8.61811e-08
1.11001e-06
1.00027e-06
-6.06889e-10
1.00103e-06
-1.63921e-09
1.00222e-06
-2.56112e-09
1.00375e-06
-3.337e-09
1.00553e-06
-3.69427e-09
1.0075e-06
-3.53792e-09
1.00958e-06
-3.1597e-09
1.01174e-06
-2.83826e-09
1.01402e-06
-2.58493e-09
1.01645e-06
-2.12985e-09
1.01904e-06
-1.25438e-09
1.02173e-06
3.06926e-10
1.02439e-06
2.36495e-09
1.027e-06
5.0065e-09
1.02949e-06
7.53794e-09
1.03199e-06
1.06518e-08
1.03444e-06
1.31548e-08
1.03711e-06
1.66579e-08
1.03986e-06
1.90432e-08
1.04311e-06
2.33509e-08
1.04656e-06
2.54841e-08
1.05085e-06
3.12343e-08
1.05539e-06
3.31714e-08
1.06116e-06
4.00069e-08
1.06736e-06
4.29914e-08
1.07493e-06
4.97431e-08
1.08343e-06
5.40379e-08
1.09333e-06
6.13922e-08
1.10461e-06
6.57315e-08
7.34215e-08
1.11737e-06
1.00038e-06
-9.90395e-10
1.00138e-06
-2.63508e-09
1.00288e-06
-4.05943e-09
1.0047e-06
-5.15546e-09
1.00671e-06
-5.70365e-09
1.00888e-06
-5.71368e-09
1.01118e-06
-5.45423e-09
1.01354e-06
-5.20646e-09
1.01602e-06
-5.06522e-09
1.01867e-06
-4.7773e-09
1.02144e-06
-4.02137e-09
1.02421e-06
-2.46863e-09
1.02689e-06
-3.14317e-10
1.02954e-06
2.36214e-09
1.03208e-06
4.998e-09
1.03467e-06
8.05805e-09
1.03726e-06
1.05685e-08
1.04012e-06
1.37932e-08
1.04311e-06
1.60557e-08
1.04666e-06
1.98007e-08
1.05042e-06
2.17271e-08
1.05508e-06
2.65698e-08
1.06e-06
2.82566e-08
1.06612e-06
3.38787e-08
1.0727e-06
3.64191e-08
1.08057e-06
4.18682e-08
1.08927e-06
4.53408e-08
1.09937e-06
5.12933e-08
1.11053e-06
5.45696e-08
6.07354e-08
1.12322e-06
1.00046e-06
-1.4527e-09
1.00178e-06
-3.95407e-09
1.00372e-06
-5.99813e-09
1.0059e-06
-7.33278e-09
1.00816e-06
-7.96268e-09
1.01058e-06
-8.13599e-09
1.01313e-06
-8.00244e-09
1.01573e-06
-7.81352e-09
1.01848e-06
-7.81592e-09
1.02145e-06
-7.74755e-09
1.02453e-06
-7.09228e-09
1.02753e-06
-5.46799e-09
1.03036e-06
-3.14615e-09
1.03303e-06
-3.08362e-10
1.03547e-06
2.55553e-09
1.03792e-06
5.6114e-09
1.04037e-06
8.11044e-09
1.04318e-06
1.09858e-08
1.0462e-06
1.30379e-08
1.04987e-06
1.61344e-08
1.0538e-06
1.77933e-08
1.05869e-06
2.16816e-08
1.06387e-06
2.30789e-08
1.07022e-06
2.75258e-08
1.07707e-06
2.95672e-08
1.08511e-06
3.38248e-08
1.09396e-06
3.64937e-08
1.1041e-06
4.1156e-08
1.11517e-06
4.35028e-08
4.82813e-08
1.12762e-06
1.00088e-06
-2.33031e-09
1.00277e-06
-5.85067e-09
1.00523e-06
-8.45351e-09
1.00776e-06
-9.8675e-09
1.01029e-06
-1.04855e-08
1.01295e-06
-1.0803e-08
1.01572e-06
-1.0768e-08
1.01859e-06
-1.06872e-08
1.02177e-06
-1.09944e-08
1.02523e-06
-1.12027e-08
1.02858e-06
-1.04412e-08
1.03151e-06
-8.40357e-09
1.03397e-06
-5.60801e-09
1.0361e-06
-2.43683e-09
1.0381e-06
5.60315e-10
1.04026e-06
3.44397e-09
1.04259e-06
5.78254e-09
1.04541e-06
8.17084e-09
1.04851e-06
9.93793e-09
1.05232e-06
1.2319e-08
1.05643e-06
1.36819e-08
1.06152e-06
1.65995e-08
1.06691e-06
1.76838e-08
1.07343e-06
2.10042e-08
1.08048e-06
2.25233e-08
1.08864e-06
2.5659e-08
1.09756e-06
2.75786e-08
1.10769e-06
3.10213e-08
1.11862e-06
3.25774e-08
3.60391e-08
1.13086e-06
1.00183e-06
-4.16331e-09
1.00509e-06
-9.1125e-09
1.00844e-06
-1.17975e-08
1.01142e-06
-1.28473e-08
1.01433e-06
-1.3399e-08
1.01733e-06
-1.3801e-08
1.02023e-06
-1.36656e-08
1.02316e-06
-1.36188e-08
1.02656e-06
-1.43998e-08
1.03034e-06
-1.498e-08
1.03383e-06
-1.39263e-08
1.03659e-06
-1.1171e-08
1.03867e-06
-7.68342e-09
1.04033e-06
-4.09931e-09
1.0418e-06
-9.05023e-10
1.04332e-06
1.91726e-09
1.04511e-06
3.99462e-09
1.04752e-06
5.76394e-09
1.05038e-06
7.08145e-09
1.0541e-06
8.59634e-09
1.05821e-06
9.5732e-09
1.06339e-06
1.14177e-08
1.06889e-06
1.21791e-08
1.07556e-06
1.43334e-08
1.08273e-06
1.53625e-08
1.09102e-06
1.73672e-08
1.09995e-06
1.86478e-08
1.11014e-06
2.083e-08
1.12095e-06
2.17633e-08
2.40467e-08
1.13295e-06
1.003e-06
-7.16803e-09
1.00678e-06
-1.28834e-08
1.00976e-06
-1.47795e-08
1.01195e-06
-1.50361e-08
1.01392e-06
-1.53724e-08
1.01564e-06
-1.55261e-08
1.01699e-06
-1.50058e-08
1.01828e-06
-1.49096e-08
1.01987e-06
-1.59939e-08
1.0215e-06
-1.66084e-08
1.02272e-06
-1.51505e-08
1.02358e-06
-1.20332e-08
1.02439e-06
-8.48747e-09
1.02539e-06
-5.0986e-09
1.02668e-06
-2.19988e-09
1.02852e-06
7.9973e-11
1.03092e-06
1.59698e-09
1.03396e-06
2.72417e-09
1.03751e-06
3.52601e-09
1.0418e-06
4.30905e-09
1.04651e-06
4.8672e-09
1.05221e-06
5.71869e-09
1.05822e-06
6.16095e-09
1.06541e-06
7.14823e-09
1.07307e-06
7.70539e-09
1.08184e-06
8.59591e-09
1.09118e-06
9.30029e-09
1.1018e-06
1.02115e-08
1.11292e-06
1.06487e-08
1.15004e-08
1.12546e-06
9.92832e-07
9.79949e-07
9.65169e-07
9.50133e-07
9.34761e-07
9.19234e-07
9.04229e-07
8.89319e-07
8.73325e-07
8.56717e-07
8.41566e-07
8.29533e-07
8.21046e-07
8.15947e-07
8.13747e-07
8.13827e-07
8.15424e-07
8.18148e-07
8.21674e-07
8.25983e-07
8.3085e-07
8.36569e-07
8.4273e-07
8.49878e-07
8.57584e-07
8.6618e-07
8.7548e-07
8.85691e-07
8.9634e-07
9.0784e-07
5.0909e-07
-1.2018e-07
5.88861e-07
-7.97719e-08
5.82278e-07
6.58299e-09
6.98175e-07
-1.15897e-07
7.74465e-07
-7.62901e-08
6.48881e-07
1.25585e-07
7.23482e-07
-7.4601e-08
9.07976e-07
-1.84494e-07
8.76758e-07
3.12184e-08
-3.88271e-08
9.15585e-07
7.809e-07
-1.32707e-07
8.12241e-07
-1.11112e-07
8.67295e-07
-4.84713e-08
8.76e-07
-1.24602e-07
9.03939e-07
-1.04229e-07
9.24175e-07
1.05348e-07
9.30283e-07
-8.07093e-08
1.04171e-06
-2.95925e-07
1.08431e-06
-1.13824e-08
4.01766e-09
1.04147e-06
8.55462e-07
-1.41542e-07
8.75909e-07
-1.3156e-07
9.09971e-07
-8.25328e-08
8.88334e-07
-1.02966e-07
8.9823e-07
-1.14124e-07
1.02097e-06
-1.73942e-08
1.01426e-06
-7.39935e-08
9.90472e-07
-2.7214e-07
1.03351e-06
-5.4423e-08
-1.007e-07
1.13823e-06
9.1484e-07
-1.44326e-07
9.20629e-07
-1.37349e-07
9.4245e-07
-1.04353e-07
9.54155e-07
-1.14672e-07
9.48413e-07
-1.08382e-07
1.00425e-06
-7.32295e-08
1.03998e-06
-1.0973e-07
9.95275e-07
-2.2743e-07
1.04622e-06
-1.05369e-07
-1.87395e-07
1.13292e-06
9.50341e-07
-1.43812e-07
9.58561e-07
-1.4557e-07
9.67371e-07
-1.13163e-07
9.7351e-07
-1.2081e-07
9.82275e-07
-1.17148e-07
1.01763e-06
-1.0858e-07
1.02847e-06
-1.20572e-07
1.01797e-06
-2.16937e-07
1.06787e-06
-1.55266e-07
-2.22466e-07
1.10294e-06
9.87581e-07
-1.4741e-07
9.86798e-07
-1.44787e-07
9.9404e-07
-1.20405e-07
1.00173e-06
-1.28501e-07
1.00811e-06
-1.23527e-07
1.02724e-06
-1.27706e-07
1.04629e-06
-1.39628e-07
1.03049e-06
-2.01138e-07
1.0503e-06
-1.75073e-07
-2.47406e-07
1.07524e-06
1.01097e-06
-1.43897e-07
1.0095e-06
-1.43322e-07
1.01479e-06
-1.25692e-07
1.01846e-06
-1.32168e-07
1.02365e-06
-1.28719e-07
1.0332e-06
-1.37255e-07
1.0413e-06
-1.47733e-07
1.03904e-06
-1.98879e-07
1.05736e-06
-1.93389e-07
-2.50822e-07
1.06078e-06
1.03546e-06
-1.42888e-07
1.03212e-06
-1.39975e-07
1.03332e-06
-1.26898e-07
1.03381e-06
-1.32654e-07
1.03729e-06
-1.32203e-07
1.04327e-06
-1.43237e-07
1.04708e-06
-1.51542e-07
1.03828e-06
-1.90072e-07
1.04376e-06
-1.98871e-07
-2.47994e-07
1.04093e-06
1.05291e-06
-1.37118e-07
1.04712e-06
-1.34181e-07
1.04653e-06
-1.26314e-07
1.04515e-06
-1.31267e-07
1.04447e-06
-1.31526e-07
1.04412e-06
-1.42886e-07
1.04463e-06
-1.52058e-07
1.03904e-06
-1.84474e-07
1.03697e-06
-1.96803e-07
-2.37706e-07
1.02668e-06
1.0684e-06
-1.31083e-07
1.06224e-06
-1.28018e-07
1.0584e-06
-1.22477e-07
1.05392e-06
-1.26784e-07
1.05122e-06
-1.28834e-07
1.04805e-06
-1.39716e-07
1.04425e-06
-1.48254e-07
1.03426e-06
-1.74485e-07
1.02758e-06
-1.90121e-07
-2.24128e-07
1.014e-06
1.08077e-06
-1.22511e-07
1.0725e-06
-1.19744e-07
1.06641e-06
-1.16388e-07
1.06031e-06
-1.20691e-07
1.05413e-06
-1.2265e-07
1.04766e-06
-1.3325e-07
1.04119e-06
-1.41783e-07
1.03057e-06
-1.63858e-07
1.01915e-06
-1.78707e-07
-2.0757e-07
1.00259e-06
1.09071e-06
-1.12756e-07
1.08153e-06
-1.10556e-07
1.07348e-06
-1.08339e-07
1.06492e-06
-1.12138e-07
1.057e-06
-1.14723e-07
1.04808e-06
-1.24333e-07
1.03871e-06
-1.32413e-07
1.02545e-06
-1.50601e-07
1.01157e-06
-1.64828e-07
-1.8887e-07
9.92875e-07
1.09881e-06
-1.01556e-07
1.08811e-06
-9.98594e-08
1.0782e-06
-9.84317e-08
1.06818e-06
-1.02117e-07
1.05803e-06
-1.0457e-07
1.04693e-06
-1.13239e-07
1.03533e-06
-1.20812e-07
1.02078e-06
-1.36045e-07
1.00453e-06
-1.48579e-07
-1.68818e-07
9.84476e-07
1.10506e-06
-8.92501e-08
1.09324e-06
-8.80423e-08
1.08203e-06
-8.72155e-08
1.07027e-06
-9.0362e-08
1.05866e-06
-9.29546e-08
1.04585e-06
-1.00435e-07
1.03236e-06
-1.07322e-07
1.01623e-06
-1.19907e-07
9.98523e-07
-1.30877e-07
-1.47553e-07
9.77259e-07
1.10991e-06
-7.59487e-08
1.09703e-06
-7.51627e-08
1.08449e-06
-7.46744e-08
1.07159e-06
-7.74591e-08
1.05849e-06
-7.98563e-08
1.0443e-06
-8.62449e-08
1.02933e-06
-9.23538e-08
1.01212e-06
-1.02696e-07
9.93211e-07
-1.11965e-07
-1.25596e-07
9.71255e-07
1.1135e-06
-6.18282e-08
1.09968e-06
-6.13464e-08
1.08621e-06
-6.12058e-08
1.07221e-06
-6.34521e-08
1.05807e-06
-6.57148e-08
1.04281e-06
-7.0985e-08
1.02669e-06
-7.62405e-08
1.00854e-06
-8.45396e-08
9.88787e-07
-9.2216e-08
-1.03019e-07
9.66209e-07
1.11605e-06
-4.70228e-08
1.10149e-06
-4.67836e-08
1.08717e-06
-4.68819e-08
1.07237e-06
-4.86578e-08
1.05735e-06
-5.0694e-08
1.04123e-06
-5.48599e-08
1.02421e-06
-5.92227e-08
1.00528e-06
-6.56105e-08
9.84855e-07
-7.179e-08
-7.99253e-08
9.61762e-07
1.11745e-06
-3.15271e-08
1.10206e-06
-3.13928e-08
1.08695e-06
-3.17756e-08
1.07131e-06
-3.30102e-08
1.05546e-06
-3.48499e-08
1.03838e-06
-3.77767e-08
1.02039e-06
-4.12379e-08
1.00047e-06
-4.56832e-08
9.79069e-07
-5.03934e-08
-5.58321e-08
9.54976e-07
1.10764e-06
-1.37006e-08
1.09019e-06
-1.39433e-08
1.07302e-06
-1.46029e-08
1.05545e-06
-1.54415e-08
1.03748e-06
-1.68804e-08
1.01827e-06
-1.85648e-08
9.97853e-07
-2.08252e-08
9.75478e-07
-2.33089e-08
9.51283e-07
-2.61979e-08
-2.88212e-08
9.24272e-07
8.9414e-07
8.80197e-07
8.65594e-07
8.50152e-07
8.33272e-07
8.14707e-07
7.93882e-07
7.70573e-07
7.44375e-07
7.15554e-07
-7.6685e-08
7.6685e-08
-2.33642e-07
1.56957e-07
-4.24718e-07
1.91076e-07
-5.78112e-07
1.53394e-07
-6.49292e-07
7.11803e-08
-6.39706e-07
-9.58665e-09
-5.42168e-07
-9.75373e-08
-4.03712e-07
-1.38457e-07
-2.44335e-07
-1.59377e-07
-8.4837e-08
-1.59498e-07
5.74105e-08
-1.42248e-07
1.75674e-07
-1.18263e-07
2.67322e-07
-9.1648e-08
3.34628e-07
-6.73068e-08
3.81879e-07
-4.72501e-08
4.13677e-07
-3.17987e-08
4.34204e-07
-2.05267e-08
4.46906e-07
-1.27021e-08
4.54444e-07
-7.53799e-09
4.58738e-07
-4.29396e-09
4.61075e-07
-2.33692e-09
4.62277e-07
-1.20162e-09
4.62843e-07
-5.66955e-10
4.63068e-07
-2.24324e-10
4.63116e-07
-4.81183e-11
4.63077e-07
3.93752e-11
4.63e-07
7.64659e-11
4.62906e-07
9.4307e-11
4.6282e-07
8.62077e-11
4.6273e-07
8.93618e-11
4.62666e-07
6.46946e-11
4.62599e-07
6.60534e-11
4.62563e-07
3.68611e-11
4.62529e-07
3.32139e-11
4.62524e-07
5.84105e-12
4.62528e-07
-4.84632e-12
4.62557e-07
-2.88801e-11
4.62609e-07
-5.15503e-11
4.62675e-07
-6.64434e-11
-1.13225e-10
-1.07503e-07
1.84188e-07
-2.85719e-07
3.35173e-07
-4.97524e-07
4.02882e-07
-6.58898e-07
3.14768e-07
-7.14853e-07
1.27135e-07
-6.80831e-07
-4.36082e-08
-5.65905e-07
-2.12464e-07
-4.06509e-07
-2.97852e-07
-2.21792e-07
-3.44094e-07
-4.58562e-08
-3.35434e-07
1.15296e-07
-3.034e-07
2.49916e-07
-2.52883e-07
3.57228e-07
-1.9896e-07
4.40433e-07
-1.50512e-07
5.04098e-07
-1.10915e-07
5.52392e-07
-8.00921e-08
5.88704e-07
-5.68388e-08
6.15777e-07
-3.97757e-08
6.3584e-07
-2.76008e-08
6.50681e-07
-1.91349e-08
6.61704e-07
-1.33598e-08
6.69965e-07
-9.4627e-09
6.76235e-07
-6.83721e-09
6.81063e-07
-5.05191e-09
6.84836e-07
-3.82089e-09
6.8782e-07
-2.94513e-09
6.90218e-07
-2.32158e-09
6.92152e-07
-1.83909e-09
6.93745e-07
-1.50679e-09
6.95039e-07
-1.20475e-09
6.96133e-07
-1.03012e-09
6.97027e-07
-8.27027e-10
6.97799e-07
-7.35519e-10
6.98437e-07
-6.05377e-10
6.99002e-07
-5.5908e-10
6.99477e-07
-4.79471e-10
6.99914e-07
-4.66269e-10
7.00293e-07
-4.3026e-10
7.00657e-07
-4.30144e-10
-4.42934e-10
-2.41367e-07
4.25556e-07
-4.08026e-07
5.01831e-07
-5.32674e-07
5.2753e-07
-6.72728e-07
4.54822e-07
-7.17923e-07
1.72329e-07
-6.64263e-07
-9.72679e-08
-5.43899e-07
-3.32828e-07
-3.72664e-07
-4.69087e-07
-1.92864e-07
-5.23894e-07
-1.64639e-08
-5.11834e-07
1.44655e-07
-4.64519e-07
2.78418e-07
-3.86646e-07
3.82197e-07
-3.02739e-07
4.6034e-07
-2.28655e-07
5.19402e-07
-1.69977e-07
5.64852e-07
-1.25542e-07
6.00321e-07
-9.23085e-08
6.28117e-07
-6.7571e-08
6.49851e-07
-4.93351e-08
6.66795e-07
-3.60786e-08
6.79998e-07
-2.65628e-08
6.90315e-07
-1.978e-08
6.98425e-07
-1.49467e-08
7.04846e-07
-1.14732e-08
7.09975e-07
-8.95026e-09
7.14101e-07
-7.07115e-09
7.17456e-07
-5.67635e-09
7.20187e-07
-4.57031e-09
7.22448e-07
-3.76773e-09
7.243e-07
-3.05605e-09
7.2586e-07
-2.59073e-09
7.27144e-07
-2.1107e-09
7.28243e-07
-1.83425e-09
7.29153e-07
-1.51604e-09
7.2995e-07
-1.35545e-09
7.30611e-07
-1.14098e-09
7.31212e-07
-1.0672e-09
7.31716e-07
-9.34193e-10
7.32195e-07
-9.08724e-10
-8.54526e-10
-9.53968e-08
5.20952e-07
-1.93352e-07
5.99787e-07
-3.46499e-07
6.80677e-07
-4.77485e-07
5.85808e-07
-5.0454e-07
1.99384e-07
-4.6057e-07
-1.41238e-07
-3.51849e-07
-4.41549e-07
-2.04055e-07
-6.16881e-07
-5.66333e-08
-6.71316e-07
8.46575e-08
-6.53124e-07
2.17627e-07
-5.97488e-07
3.34422e-07
-5.03441e-07
4.27894e-07
-3.96211e-07
4.98341e-07
-2.99102e-07
5.49988e-07
-2.21624e-07
5.88115e-07
-1.63669e-07
6.17107e-07
-1.213e-07
6.39831e-07
-9.02948e-08
6.57967e-07
-6.74711e-08
6.72535e-07
-5.06466e-08
6.8425e-07
-3.82779e-08
6.93677e-07
-2.9207e-08
7.01279e-07
-2.25486e-08
7.0743e-07
-1.76241e-08
7.12433e-07
-1.39528e-08
7.16516e-07
-1.11548e-08
7.19875e-07
-9.03541e-09
7.22636e-07
-7.33137e-09
7.24937e-07
-6.06864e-09
7.26834e-07
-4.95265e-09
7.28437e-07
-4.19391e-09
7.29762e-07
-3.4354e-09
7.30897e-07
-2.96922e-09
7.31839e-07
-2.45783e-09
7.32663e-07
-2.17992e-09
7.33346e-07
-1.82419e-09
7.33967e-07
-1.68779e-09
7.34484e-07
-1.45151e-09
7.34975e-07
-1.39937e-09
-1.27313e-09
1.18443e-07
4.02509e-07
4.03311e-08
6.77898e-07
-8.888e-08
8.09888e-07
-1.0229e-07
5.99218e-07
-5.01992e-08
1.47293e-07
2.8199e-08
-2.19636e-07
1.00693e-07
-5.14042e-07
1.82924e-07
-6.99113e-07
2.66358e-07
-7.54749e-07
3.31648e-07
-7.18415e-07
3.90653e-07
-6.56493e-07
4.45839e-07
-5.58627e-07
4.94424e-07
-4.44795e-07
5.38695e-07
-3.43373e-07
5.7798e-07
-2.60909e-07
6.10102e-07
-1.95791e-07
6.34799e-07
-1.45997e-07
6.53551e-07
-1.09047e-07
6.68143e-07
-8.20631e-08
6.79859e-07
-6.23635e-08
6.89463e-07
-4.78815e-08
6.97404e-07
-3.71481e-08
7.03986e-07
-2.91303e-08
7.0944e-07
-2.30785e-08
7.13963e-07
-1.84757e-08
7.17712e-07
-1.49037e-08
7.20832e-07
-1.21554e-08
7.2342e-07
-9.91967e-09
7.25592e-07
-8.24007e-09
7.27392e-07
-6.75271e-09
7.28919e-07
-5.72135e-09
7.30185e-07
-4.70144e-09
7.31273e-07
-4.05694e-09
7.32177e-07
-3.36137e-09
7.32969e-07
-2.97241e-09
7.33626e-07
-2.48102e-09
7.34223e-07
-2.28482e-09
7.3472e-07
-1.94885e-09
7.35192e-07
-1.87127e-09
-1.67438e-09
2.75492e-07
1.27017e-07
2.4344e-07
7.0995e-07
2.70627e-07
7.82701e-07
3.54513e-07
5.15332e-07
4.62968e-07
3.88385e-08
5.50512e-07
-3.0718e-07
5.88793e-07
-5.52324e-07
6.19712e-07
-7.30031e-07
6.46056e-07
-7.81094e-07
6.50132e-07
-7.2249e-07
6.47475e-07
-6.53836e-07
6.44874e-07
-5.56026e-07
6.31681e-07
-4.31603e-07
6.18912e-07
-3.30604e-07
6.20127e-07
-2.62124e-07
6.33399e-07
-2.09064e-07
6.50366e-07
-1.62963e-07
6.65661e-07
-1.24342e-07
6.77901e-07
-9.43028e-08
6.87547e-07
-7.20099e-08
6.95351e-07
-5.56853e-08
7.01841e-07
-4.36382e-08
7.07319e-07
-3.46082e-08
7.1196e-07
-2.77191e-08
7.15888e-07
-2.24046e-08
7.19203e-07
-1.82183e-08
7.22001e-07
-1.49534e-08
7.24348e-07
-1.22669e-08
7.26334e-07
-1.0226e-08
7.27992e-07
-8.40997e-09
7.29405e-07
-7.13472e-09
7.30581e-07
-5.87725e-09
7.31594e-07
-5.07044e-09
7.32438e-07
-4.20474e-09
7.33179e-07
-3.71357e-09
7.33794e-07
-3.09599e-09
7.34353e-07
-2.84418e-09
7.34819e-07
-2.41499e-09
7.35261e-07
-2.31361e-09
-2.05002e-09
-3.8028e-08
1.65045e-07
2.17074e-07
4.54849e-07
3.95967e-07
6.03808e-07
6.18273e-07
2.93026e-07
7.96708e-07
-1.39596e-07
8.84878e-07
-3.95351e-07
8.84842e-07
-5.52288e-07
8.52273e-07
-6.97463e-07
8.42164e-07
-7.70984e-07
8.21671e-07
-7.01998e-07
7.83988e-07
-6.16154e-07
7.7012e-07
-5.42157e-07
7.61302e-07
-4.22785e-07
7.32148e-07
-3.0145e-07
6.97683e-07
-2.27659e-07
6.78097e-07
-1.89478e-07
6.74627e-07
-1.59493e-07
6.79798e-07
-1.29514e-07
6.87428e-07
-1.01932e-07
6.94709e-07
-7.92912e-08
7.00957e-07
-6.19336e-08
7.06252e-07
-4.89333e-08
7.10784e-07
-3.91397e-08
7.14684e-07
-3.16194e-08
7.18041e-07
-2.57614e-08
7.20915e-07
-2.10926e-08
7.23372e-07
-1.74102e-08
7.25454e-07
-1.43485e-08
7.27229e-07
-1.20013e-08
7.28719e-07
-9.90051e-09
7.29997e-07
-8.4123e-09
7.31064e-07
-6.94407e-09
7.31987e-07
-5.99305e-09
7.32756e-07
-4.97421e-09
7.33434e-07
-4.39111e-09
7.33997e-07
-3.65904e-09
7.34509e-07
-3.35677e-09
7.34937e-07
-2.84236e-09
7.35342e-07
-2.71931e-09
-2.39416e-09
7.12047e-07
3.68584e-07
7.20751e-07
4.46145e-07
8.0537e-07
5.19189e-07
9.30876e-07
1.6752e-07
1.0348e-06
-2.43517e-07
1.12048e-06
-4.8103e-07
1.12257e-06
-5.54384e-07
1.01289e-06
-5.87781e-07
9.31858e-07
-6.89952e-07
9.04992e-07
-6.75131e-07
8.40645e-07
-5.51807e-07
7.74272e-07
-4.75784e-07
7.65248e-07
-4.13761e-07
7.82013e-07
-3.18215e-07
7.83399e-07
-2.29045e-07
7.67439e-07
-1.73517e-07
7.50131e-07
-1.42186e-07
7.40482e-07
-1.19865e-07
7.38232e-07
-9.96818e-08
7.40122e-07
-8.11811e-08
7.43563e-07
-6.53742e-08
7.47258e-07
-5.26291e-08
7.50737e-07
-4.26179e-08
7.53877e-07
-3.47593e-08
7.56669e-07
-2.8554e-08
7.59124e-07
-2.35476e-08
7.61269e-07
-1.95548e-08
7.63118e-07
-1.61974e-08
7.64717e-07
-1.36002e-08
7.66073e-07
-1.12567e-08
7.67245e-07
-9.58411e-09
7.68229e-07
-7.92818e-09
7.69084e-07
-6.84801e-09
7.69799e-07
-5.68965e-09
7.70431e-07
-5.02265e-09
7.70957e-07
-4.18493e-09
7.71436e-07
-3.83612e-09
7.71836e-07
-3.24236e-09
7.72216e-07
-3.0992e-09
-2.71612e-09
1.05141e-06
3.58643e-07
1.1395e-06
3.58056e-07
1.25302e-06
4.05664e-07
1.30688e-06
1.1366e-07
1.25465e-06
-1.91287e-07
1.21059e-06
-4.36967e-07
1.20913e-06
-5.52919e-07
1.11903e-06
-4.97689e-07
9.56302e-07
-5.2722e-07
8.62968e-07
-5.81798e-07
7.9998e-07
-4.88819e-07
7.07625e-07
-3.83429e-07
6.48464e-07
-3.546e-07
6.59069e-07
-3.2882e-07
7.04517e-07
-2.74493e-07
7.42492e-07
-2.11492e-07
7.58673e-07
-1.58367e-07
7.59439e-07
-1.20631e-07
7.5524e-07
-9.54834e-08
7.521e-07
-7.8041e-08
7.51417e-07
-6.46908e-08
7.5258e-07
-5.37924e-08
7.54658e-07
-4.46957e-08
7.56995e-07
-3.7096e-08
7.59251e-07
-3.08105e-08
7.61289e-07
-2.55852e-08
7.63082e-07
-2.13474e-08
7.6463e-07
-1.77459e-08
7.65972e-07
-1.49418e-08
7.67113e-07
-1.23977e-08
7.68102e-07
-1.05733e-08
7.68936e-07
-8.7618e-09
7.69662e-07
-7.57472e-09
7.70272e-07
-6.29959e-09
7.70812e-07
-5.56247e-09
7.71263e-07
-4.63543e-09
7.71674e-07
-4.2474e-09
7.72017e-07
-3.5859e-09
7.72344e-07
-3.42567e-09
-2.99261e-09
1.21261e-06
2.84261e-07
1.3025e-06
2.68164e-07
1.41604e-06
2.92122e-07
1.43191e-06
9.77934e-08
1.34907e-06
-1.08448e-07
1.23591e-06
-3.23805e-07
1.15174e-06
-4.68752e-07
1.12462e-06
-4.70566e-07
1.04312e-06
-4.45724e-07
9.05834e-07
-4.44507e-07
8.08581e-07
-3.91565e-07
7.43368e-07
-3.18217e-07
6.79835e-07
-2.91068e-07
6.40106e-07
-2.8909e-07
6.42793e-07
-2.7718e-07
6.74881e-07
-2.43581e-07
7.11902e-07
-1.95388e-07
7.38942e-07
-1.47671e-07
7.53103e-07
-1.09645e-07
7.58671e-07
-8.36089e-08
7.60238e-07
-6.62577e-08
7.60633e-07
-5.41873e-08
7.61068e-07
-4.51305e-08
7.61842e-07
-3.78705e-08
7.62895e-07
-3.1863e-08
7.64075e-07
-2.67649e-08
7.65261e-07
-2.25343e-08
7.66372e-07
-1.88563e-08
7.67382e-07
-1.59523e-08
7.68267e-07
-1.32823e-08
7.69048e-07
-1.13549e-08
7.69715e-07
-9.42816e-09
7.70301e-07
-8.16046e-09
7.70795e-07
-6.79399e-09
7.71234e-07
-6.00195e-09
7.71602e-07
-5.00333e-09
7.71939e-07
-4.58405e-09
7.72221e-07
-3.86755e-09
7.72489e-07
-3.69356e-09
-3.21938e-09
1.18004e-06
2.37136e-07
1.24476e-06
2.03451e-07
1.33993e-06
1.96946e-07
1.3456e-06
9.2129e-08
1.31439e-06
-7.72457e-08
1.22519e-06
-2.34603e-07
1.10666e-06
-3.50217e-07
1.05178e-06
-4.15685e-07
1.0069e-06
-4.0085e-07
9.04858e-07
-3.42462e-07
8.30945e-07
-3.17652e-07
8.40217e-07
-3.27488e-07
8.70896e-07
-3.21747e-07
8.63033e-07
-2.81227e-07
8.18799e-07
-2.32947e-07
7.72028e-07
-1.96811e-07
7.44923e-07
-1.68283e-07
7.38009e-07
-1.40756e-07
7.41216e-07
-1.12853e-07