/*--------------------------------*- C++ -*----------------------------------*\
| =========                 |                                                 |
| \\      /  F ield         | OpenFOAM: The Open Source CFD Toolbox           |
|  \\    /   O peration     | Version:  2112                                  |
|   \\  /    A nd           | Website:  www.openfoam.com                      |
|    \\/     M anipulation  |                                                 |
\*---------------------------------------------------------------------------*/
FoamFile
{
    version     2.0;
    format      ascii;
    arch        "LSB;label=32;scalar=64";
    class       volVectorField;
    location    "0.14";
    object      U;
}
// * * * * * * * * * * * * * * * * * * * * * * * * * * * * * * * * * * * * * //

dimensions      [0 1 -1 0 0 0 0];

internalField   nonuniform List<vector> 
1880
(
(0.0989695 0.00060098 0)
(0.0984928 0.00113223 0)
(0.0974122 0.00131932 0)
(0.0957945 0.00133677 0)
(0.0942362 0.00135362 0)
(0.0924354 0.00136419 0)
(0.0905579 0.00133369 0)
(0.0890635 0.00135776 0)
(0.0875042 0.00147768 0)
(0.0855015 0.00152366 0)
(0.0834596 0.00137397 0)
(0.0817978 0.00109239 0)
(0.0804459 0.000824359 0)
(0.0793495 0.000579035 0)
(0.0784201 0.000439616 0)
(0.0777911 0.000289038 0)
(0.0771361 0.000326327 0)
(0.0766938 0.000213626 0)
(0.0759588 0.000407967 0)
(0.0754672 0.000242912 0)
(0.0744926 0.000588105 0)
(0.0737777 0.000354676 0)
(0.0723885 0.000870364 0)
(0.0712667 0.00059619 0)
(0.069149 0.00128721 0)
(0.067314 0.00130728 0)
(0.0637708 0.00152224 0)
(0.0609231 0.00404963 0)
(0.0528094 0.000642739 0)
(0.0510551 0.0133154 0)
(0.0999426 0.000700683 0)
(0.100372 0.00137265 0)
(0.100669 0.00165762 0)
(0.100888 0.00174649 0)
(0.101323 0.00183316 0)
(0.101352 0.00191871 0)
(0.101067 0.00192222 0)
(0.101132 0.00194086 0)
(0.101337 0.00209794 0)
(0.101248 0.00225275 0)
(0.100985 0.00222212 0)
(0.10086 0.00197549 0)
(0.10062 0.00168657 0)
(0.100396 0.00132261 0)
(0.0997795 0.0011527 0)
(0.0996651 0.00081347 0)
(0.0987282 0.00101069 0)
(0.0989934 0.000600748 0)
(0.0973861 0.00129013 0)
(0.0981583 0.000622233 0)
(0.0956961 0.00179623 0)
(0.096849 0.000982872 0)
(0.0935805 0.00240447 0)
(0.0947292 0.00183086 0)
(0.0906065 0.00344661 0)
(0.0913766 0.00315896 0)
(0.086545 0.00582514 0)
(0.0849994 0.00542341 0)
(0.0824743 0.0111949 0)
(0.0723848 0.0105166 0)
(0.0999397 0.000250254 0)
(0.100284 0.000652741 0)
(0.100506 0.000954415 0)
(0.10074 0.00113147 0)
(0.101309 0.00124945 0)
(0.101497 0.00135764 0)
(0.101354 0.00142672 0)
(0.101584 0.00148941 0)
(0.102003 0.00160677 0)
(0.102154 0.00172355 0)
(0.102157 0.00174892 0)
(0.10228 0.00165561 0)
(0.10229 0.00152562 0)
(0.102172 0.00136342 0)
(0.101717 0.00129491 0)
(0.101513 0.00116692 0)
(0.100801 0.00132422 0)
(0.100799 0.00116758 0)
(0.0996387 0.00173287 0)
(0.099946 0.00132887 0)
(0.0982791 0.00251588 0)
(0.0986326 0.00181369 0)
(0.0969157 0.00347981 0)
(0.0962884 0.00320783 0)
(0.0956115 0.00447889 0)
(0.0926967 0.00598816 0)
(0.0937325 0.00665569 0)
(0.0884379 0.00960622 0)
(0.0902594 0.012867 0)
(0.0848563 0.0146655 0)
(0.0999323 0.000230048 0)
(0.100193 0.000625755 0)
(0.100278 0.000938887 0)
(0.100371 0.00114371 0)
(0.100899 0.00128465 0)
(0.101102 0.00140523 0)
(0.100951 0.00148732 0)
(0.101171 0.00154295 0)
(0.101589 0.00163043 0)
(0.101733 0.00174707 0)
(0.101714 0.00184596 0)
(0.101862 0.00185805 0)
(0.101919 0.00183721 0)
(0.101919 0.00173262 0)
(0.101543 0.00172696 0)
(0.101493 0.00159287 0)
(0.10086 0.00179275 0)
(0.101001 0.00162416 0)
(0.0999137 0.00223727 0)
(0.100369 0.00187625 0)
(0.0986819 0.00314511 0)
(0.0995208 0.0024357 0)
(0.0971918 0.00454995 0)
(0.0981999 0.00360286 0)
(0.0955887 0.00657606 0)
(0.0960466 0.0057739 0)
(0.0941576 0.00970012 0)
(0.0929348 0.00967197 0)
(0.0930377 0.0144964 0)
(0.0903306 0.0164637 0)
(0.0999283 0.000144932 0)
(0.100153 0.000410129 0)
(0.10018 0.000634972 0)
(0.100201 0.000812981 0)
(0.100698 0.000960282 0)
(0.1009 0.00108244 0)
(0.100743 0.00116813 0)
(0.100951 0.00123074 0)
(0.101352 0.00131088 0)
(0.101469 0.00142198 0)
(0.101425 0.00154453 0)
(0.101586 0.00163228 0)
(0.101687 0.00169858 0)
(0.10177 0.00171624 0)
(0.10147 0.00178181 0)
(0.101516 0.00178606 0)
(0.100967 0.00198782 0)
(0.101166 0.00199561 0)
(0.100255 0.00250316 0)
(0.100593 0.00245217 0)
(0.0994392 0.0034046 0)
(0.0996714 0.00337462 0)
(0.0986419 0.0046 0)
(0.0983045 0.00523899 0)
(0.0977872 0.00609102 0)
(0.0967259 0.00823959 0)
(0.0966556 0.00893338 0)
(0.0955036 0.0116076 0)
(0.0953974 0.0150307 0)
(0.095039 0.0155104 0)
(0.0999269 0.000120484 0)
(0.100139 0.000350803 0)
(0.10014 0.000552079 0)
(0.100115 0.000726317 0)
(0.100575 0.000881811 0)
(0.100764 0.00101085 0)
(0.100602 0.00110498 0)
(0.100802 0.00117631 0)
(0.101189 0.00125798 0)
(0.101292 0.0013713 0)
(0.101234 0.00151061 0)
(0.1014 0.00163833 0)
(0.101521 0.00174944 0)
(0.101661 0.00182319 0)
(0.101415 0.00192151 0)
(0.101552 0.00198874 0)
(0.101072 0.00219249 0)
(0.101378 0.00229254 0)
(0.100544 0.00275708 0)
(0.101012 0.00284417 0)
(0.0999207 0.00374492 0)
(0.100406 0.00377865 0)
(0.0993199 0.00521077 0)
(0.0995162 0.00536865 0)
(0.0988283 0.00722431 0)
(0.0983773 0.00794735 0)
(0.0986709 0.0100566 0)
(0.0973286 0.0118347 0)
(0.0987958 0.0141319 0)
(0.0976345 0.0170784 0)
(0.0999263 9.17743e-05 0)
(0.100127 0.000271787 0)
(0.100108 0.000425991 0)
(0.100056 0.000564231 0)
(0.100493 0.000700923 0)
(0.10067 0.000822735 0)
(0.100505 0.000913901 0)
(0.100703 0.000983494 0)
(0.101088 0.00106178 0)
(0.101191 0.00117563 0)
(0.101137 0.0013243 0)
(0.101317 0.00148503 0)
(0.101464 0.00163649 0)
(0.101647 0.0017762 0)
(0.101458 0.00191509 0)
(0.101654 0.00206561 0)
(0.101262 0.00227322 0)
(0.101612 0.00248852 0)
(0.100939 0.00287425 0)
(0.101371 0.0031806 0)
(0.100616 0.00381328 0)
(0.100897 0.00432525 0)
(0.1004 0.00510213 0)
(0.100291 0.00616843 0)
(0.100217 0.00689073 0)
(0.0998966 0.00872263 0)
(0.100073 0.00983363 0)
(0.100081 0.0116147 0)
(0.100358 0.014579 0)
(0.100877 0.0151501 0)
(0.0999261 7.09138e-05 0)
(0.100121 0.000214908 0)
(0.100093 0.000338955 0)
(0.100028 0.000453705 0)
(0.100452 0.000576727 0)
(0.100622 0.000695207 0)
(0.100457 0.000788495 0)
(0.100657 0.000860391 0)
(0.101042 0.000937702 0)
(0.101147 0.00105072 0)
(0.1011 0.00120176 0)
(0.101292 0.00137915 0)
(0.101467 0.00155226 0)
(0.101684 0.00173261 0)
(0.101549 0.00189615 0)
(0.101792 0.00210115 0)
(0.101483 0.00231252 0)
(0.101882 0.00259753 0)
(0.101329 0.00294835 0)
(0.10181 0.00334496 0)
(0.101212 0.00390809 0)
(0.101561 0.00448548 0)
(0.10126 0.00524579 0)
(0.101234 0.00618831 0)
(0.101484 0.00707996 0)
(0.101114 0.00856658 0)
(0.101932 0.00962937 0)
(0.101591 0.0116894 0)
(0.102736 0.0130724 0)
(0.103041 0.0154586 0)
(0.099926 5.24544e-05 0)
(0.100119 0.000162595 0)
(0.100087 0.000256926 0)
(0.100015 0.000344497 0)
(0.100433 0.00044612 0)
(0.1006 0.000553033 0)
(0.100436 0.000641243 0)
(0.10064 0.000709113 0)
(0.101031 0.000780585 0)
(0.101144 0.00088913 0)
(0.10111 0.00103885 0)
(0.101318 0.00122687 0)
(0.101522 0.00141598 0)
(0.101766 0.00162906 0)
(0.101689 0.00181386 0)
(0.101962 0.00206432 0)
(0.101746 0.00227866 0)
(0.102164 0.00262414 0)
(0.101756 0.00292941 0)
(0.102232 0.00342769 0)
(0.101841 0.00384945 0)
(0.102179 0.00460826 0)
(0.102113 0.0051004 0)
(0.102159 0.00625774 0)
(0.10253 0.00686945 0)
(0.102536 0.00832893 0)
(0.1031 0.00942113 0)
(0.103561 0.0107972 0)
(0.104236 0.0127842 0)
(0.105092 0.0138432 0)
(0.0999259 3.48732e-05 0)
(0.100118 0.000112196 0)
(0.100086 0.000177529 0)
(0.100013 0.000238097 0)
(0.100431 0.000317067 0)
(0.100599 0.000410725 0)
(0.100442 0.000493467 0)
(0.100654 0.000558003 0)
(0.101055 0.000624265 0)
(0.101177 0.000726844 0)
(0.101158 0.000871672 0)
(0.101382 0.00106283 0)
(0.101618 0.00126093 0)
(0.101884 0.00149505 0)
(0.101863 0.00169636 0)
(0.102158 0.00197565 0)
(0.102032 0.00219663 0)
(0.102461 0.00257243 0)
(0.102183 0.00285738 0)
(0.102664 0.00338938 0)
(0.102434 0.00375132 0)
(0.102796 0.00453678 0)
(0.102905 0.00494671 0)
(0.103003 0.00606797 0)
(0.103577 0.00659638 0)
(0.103626 0.00797979 0)
(0.104445 0.00877132 0)
(0.104905 0.0103661 0)
(0.10582 0.0114366 0)
(0.106765 0.0131305 0)
(0.0999259 1.73359e-05 0)
(0.10012 6.13485e-05 0)
(0.10009 9.73719e-05 0)
(0.100021 0.000130433 0)
(0.100444 0.000184934 0)
(0.100619 0.000262389 0)
(0.100471 0.00033658 0)
(0.100693 0.000394521 0)
(0.101106 0.000452303 0)
(0.10124 0.000545112 0)
(0.10124 0.000681016 0)
(0.101479 0.000869514 0)
(0.101747 0.00107168 0)
(0.102032 0.0013195 0)
(0.102066 0.00153473 0)
(0.102373 0.00183359 0)
(0.102333 0.00206129 0)
(0.102763 0.0024538 0)
(0.102609 0.00272052 0)
(0.103085 0.00326896 0)
(0.102999 0.00357103 0)
(0.103388 0.00436876 0)
(0.103617 0.00468943 0)
(0.103827 0.0057584 0)
(0.104436 0.00623775 0)
(0.104722 0.0074027 0)
(0.105465 0.00823456 0)
(0.106217 0.00940878 0)
(0.10708 0.0105742 0)
(0.108142 0.0117536 0)
(0.0999258 -1.16581e-06 0)
(0.100123 7.95624e-06 0)
(0.100099 1.376e-05 0)
(0.100038 1.87761e-05 0)
(0.10047 4.94112e-05 0)
(0.100657 0.000112007 0)
(0.100521 0.000178959 0)
(0.100755 0.000232071 0)
(0.101182 0.000282781 0)
(0.101332 0.000365359 0)
(0.101352 0.000489831 0)
(0.101607 0.000670569 0)
(0.101908 0.00087198 0)
(0.102209 0.00112486 0)
(0.102292 0.00134922 0)
(0.102606 0.00165578 0)
(0.102644 0.00188948 0)
(0.103067 0.00228069 0)
(0.103023 0.00253713 0)
(0.103491 0.00307096 0)
(0.103528 0.00333765 0)
(0.103938 0.00409922 0)
(0.10427 0.00436597 0)
(0.104555 0.00535123 0)
(0.105232 0.0057558 0)
(0.105624 0.00681383 0)
(0.10643 0.00745171 0)
(0.107255 0.00860659 0)
(0.108182 0.00937357 0)
(0.109303 0.0105853 0)
(0.0999259 -2.22229e-05 0)
(0.100128 -5.34605e-05 0)
(0.100115 -8.3586e-05 0)
(0.100068 -0.000112386 0)
(0.100517 -0.000112369 0)
(0.100721 -7.23431e-05 0)
(0.1006 -2.02995e-05 0)
(0.100847 2.12408e-05 0)
(0.101291 5.91523e-05 0)
(0.101456 0.000125828 0)
(0.101495 0.000235767 0)
(0.101765 0.000407958 0)
(0.102094 0.000612049 0)
(0.102407 0.000873352 0)
(0.102533 0.00111266 0)
(0.102848 0.00142689 0)
(0.102954 0.00167086 0)
(0.103366 0.00205379 0)
(0.103416 0.00230514 0)
(0.103873 0.00280857 0)
(0.104012 0.00305141 0)
(0.104445 0.00375108 0)
(0.104846 0.00398515 0)
(0.105217 0.00485297 0)
(0.105908 0.00522548 0)
(0.106428 0.00610525 0)
(0.107229 0.00668896 0)
(0.108143 0.00762463 0)
(0.109098 0.00829038 0)
(0.110248 0.00927415 0)
(0.0999258 -4.5779e-05 0)
(0.100135 -0.000119299 0)
(0.100134 -0.000184357 0)
(0.100105 -0.000240634 0)
(0.100574 -0.000261487 0)
(0.100797 -0.00023457 0)
(0.100693 -0.000188103 0)
(0.100958 -0.000149573 0)
(0.101424 -0.000117082 0)
(0.101612 -6.11406e-05 0)
(0.101677 3.77071e-05 0)
(0.101969 0.00020239 0)
(0.102328 0.000404208 0)
(0.102649 0.000661459 0)
(0.102809 0.000902223 0)
(0.103115 0.0012074 0)
(0.103273 0.00144974 0)
(0.103665 0.00180799 0)
(0.103791 0.00204871 0)
(0.104232 0.00250456 0)
(0.104451 0.00272669 0)
(0.1049 0.00334629 0)
(0.105354 0.00355271 0)
(0.10579 0.00430188 0)
(0.106497 0.00462386 0)
(0.107098 0.00537213 0)
(0.107917 0.00584183 0)
(0.108868 0.00665769 0)
(0.109854 0.00714576 0)
(0.111014 0.00799934 0)
(0.0999265 -8.05188e-05 0)
(0.10015 -0.000217918 0)
(0.100175 -0.000340519 0)
(0.100181 -0.000441656 0)
(0.100682 -0.000493276 0)
(0.100929 -0.000488972 0)
(0.100843 -0.00045924 0)
(0.101126 -0.000432906 0)
(0.101614 -0.000414196 0)
(0.101824 -0.000377738 0)
(0.101913 -0.000298332 0)
(0.102215 -0.000146068 0)
(0.102584 5.68405e-05 0)
(0.102897 0.000325202 0)
(0.103074 0.000590834 0)
(0.103366 0.000908938 0)
(0.103564 0.00116826 0)
(0.103936 0.0015115 0)
(0.104124 0.00174904 0)
(0.10455 0.0021557 0)
(0.104834 0.00236181 0)
(0.105296 0.00289398 0)
(0.105787 0.00307866 0)
(0.10628 0.00370335 0)
(0.10699 0.00398416 0)
(0.107657 0.0045922 0)
(0.108484 0.00498381 0)
(0.109456 0.0056463 0)
(0.110462 0.00602718 0)
(0.111625 0.00671687 0)
(0.0999277 -0.000109441 0)
(0.100166 -0.000292744 0)
(0.100221 -0.000448782 0)
(0.100278 -0.00056351 0)
(0.100822 -0.000621511 0)
(0.101092 -0.00062911 0)
(0.101025 -0.000607808 0)
(0.101331 -0.000585328 0)
(0.101847 -0.000576408 0)
(0.102088 -0.000555662 0)
(0.102209 -0.000485081 0)
(0.102534 -0.000331157 0)
(0.102929 -0.000114877 0)
(0.103244 0.000160873 0)
(0.103429 0.000424571 0)
(0.103689 0.000717281 0)
(0.103895 0.000956803 0)
(0.104227 0.00125346 0)
(0.104446 0.00146389 0)
(0.104845 0.00180308 0)
(0.105172 0.00198135 0)
(0.105638 0.00241794 0)
(0.106153 0.00257448 0)
(0.106686 0.00307861 0)
(0.107397 0.00331013 0)
(0.108107 0.0037947 0)
(0.108944 0.00410157 0)
(0.109919 0.00463272 0)
(0.110942 0.00491114 0)
(0.112094 0.00545765 0)
(0.0999318 -0.000201538 0)
(0.100207 -0.000531105 0)
(0.100324 -0.000787568 0)
(0.100457 -0.000939334 0)
(0.10104 -0.00100631 0)
(0.10132 -0.00103253 0)
(0.101269 -0.00102509 0)
(0.1016 -0.00100771 0)
(0.102152 -0.00101684 0)
(0.10244 -0.00102476 0)
(0.102607 -0.000964022 0)
(0.102946 -0.000790178 0)
(0.103323 -0.000534772 0)
(0.103579 -0.000227627 0)
(0.103716 7.11909e-05 0)
(0.103925 0.000388376 0)
(0.10413 0.000649582 0)
(0.104434 0.000929273 0)
(0.104684 0.00113138 0)
(0.105069 0.00141363 0)
(0.105434 0.00156979 0)
(0.105906 0.00191337 0)
(0.106441 0.00204192 0)
(0.107006 0.00243117 0)
(0.107716 0.00261175 0)
(0.108456 0.00298176 0)
(0.109302 0.00321073 0)
(0.110268 0.00361553 0)
(0.111307 0.00380911 0)
(0.112438 0.00422045 0)
(0.099939 -0.000229358 0)
(0.1003 -0.000583678 0)
(0.100558 -0.000844053 0)
(0.100838 -0.000981829 0)
(0.101466 -0.00104446 0)
(0.101738 -0.00108248 0)
(0.101705 -0.00108567 0)
(0.10206 -0.00109203 0)
(0.102622 -0.00114568 0)
(0.102932 -0.00117579 0)
(0.103132 -0.00108205 0)
(0.103476 -0.000851021 0)
(0.103821 -0.000554405 0)
(0.104021 -0.00024002 0)
(0.104117 5.02648e-05 0)
(0.104261 0.00031682 0)
(0.104415 0.000522236 0)
(0.104653 0.000718236 0)
(0.104887 0.000866509 0)
(0.105239 0.00105621 0)
(0.105612 0.00117071 0)
(0.106085 0.0014087 0)
(0.106626 0.00149881 0)
(0.107217 0.00177528 0)
(0.107923 0.00190003 0)
(0.108689 0.00216003 0)
(0.109542 0.00231712 0)
(0.110498 0.00260165 0)
(0.11156 0.00272088 0)
(0.112655 0.00300637 0)
(0.099942 -0.00068646 0)
(0.100388 -0.00132621 0)
(0.100724 -0.00158306 0)
(0.100992 -0.0016448 0)
(0.101496 -0.00169387 0)
(0.10162 -0.00173288 0)
(0.101461 -0.00169304 0)
(0.101669 -0.00167183 0)
(0.102045 -0.0017787 0)
(0.102148 -0.00187164 0)
(0.102133 -0.00175737 0)
(0.102267 -0.00143474 0)
(0.102444 -0.00102628 0)
(0.102547 -0.00061047 0)
(0.102606 -0.000243599 0)
(0.102758 5.04017e-05 0)
(0.102956 0.000258914 0)
(0.10327 0.00041742 0)
(0.103552 0.000533827 0)
(0.104004 0.000649159 0)
(0.104377 0.000730668 0)
(0.104987 0.000863134 0)
(0.105472 0.000925603 0)
(0.106241 0.0010805 0)
(0.106858 0.0011629 0)
(0.107816 0.00130413 0)
(0.108573 0.00140678 0)
(0.109714 0.00156216 0)
(0.110674 0.00162766 0)
(0.111955 0.00178116 0)
(0.098969 -0.000597211 0)
(0.0985119 -0.00111999 0)
(0.0974724 -0.00129889 0)
(0.0959098 -0.00130735 0)
(0.0944282 -0.00131193 0)
(0.0927359 -0.00130928 0)
(0.0909956 -0.00126645 0)
(0.0896601 -0.00127497 0)
(0.0882982 -0.00137434 0)
(0.0865341 -0.0014021 0)
(0.0847731 -0.00123228 0)
(0.0834343 -0.00093617 0)
(0.0824836 -0.000639023 0)
(0.0818171 -0.000385697 0)
(0.0814351 -0.000184212 0)
(0.0813441 -3.1871e-05 0)
(0.0814394 6.68632e-05 0)
(0.0816832 0.000133777 0)
(0.0819754 0.000177457 0)
(0.082405 0.000217059 0)
(0.082813 0.000247745 0)
(0.0834122 0.000284728 0)
(0.0839184 0.000311496 0)
(0.0846872 0.000354554 0)
(0.0853045 0.000383586 0)
(0.0862621 0.000422707 0)
(0.0869859 0.000461329 0)
(0.088147 0.00049264 0)
(0.0889928 0.000519836 0)
(0.0903197 0.000546527 0)
(0.027472 0.00144493 0)
(0.074721 0.028523 0)
(0.0475173 0.026972 0)
(0.0770164 0.0262739 9.76333e-22)
(0.0798474 0.030572 9.13963e-22)
(0.0948678 0.0486066 0)
(0.0537151 0.0222528 1.48883e-22)
(0.126641 0.0475006 2.58454e-22)
(0.0958552 0.0487834 4.9965e-22)
(0.131531 0.0493922 0)
(0.0802954 0.0245357 0)
(0.0777484 0.0268531 0)
(0.0897167 0.0391431 0)
(0.0980673 0.0321739 0)
(0.0975068 0.0371411 0)
(0.105136 0.0691244 2.06528e-22)
(0.110841 0.0396749 3.57241e-23)
(0.119245 0.0301524 -1.52796e-23)
(0.135802 0.0660469 -5.00815e-22)
(0.144492 0.072351 -5.64763e-22)
(0.0848929 0.0236409 0)
(0.0877531 0.0243577 0)
(0.0940329 0.0335962 0)
(0.102421 0.0337291 0)
(0.0943315 0.0276778 0)
(0.109024 0.0483969 -2.06531e-22)
(0.13041 0.0521226 -3.57272e-23)
(0.119601 0.0164574 1.52799e-23)
(0.124403 0.0485019 2.81591e-22)
(0.146863 0.059623 5.64834e-22)
(0.0911869 0.0221211 -4.93141e-22)
(0.0941071 0.0256505 0)
(0.0971036 0.0301175 -3.92413e-22)
(0.105094 0.0326339 -3.30297e-22)
(0.106253 0.0334941 -2.69044e-22)
(0.108161 0.0398076 0)
(0.128576 0.0419364 0)
(0.125812 0.0312744 6.97659e-23)
(0.124739 0.0456561 2.13814e-22)
(0.147567 0.0435724 4.0425e-22)
(0.0949476 0.02309 4.93144e-22)
(0.097674 0.022743 0)
(0.101887 0.0278577 3.92415e-22)
(0.106097 0.0284224 3.30303e-22)
(0.108993 0.0301639 2.69045e-22)
(0.114125 0.0337254 0)
(0.124914 0.0365141 0)
(0.126581 0.023091 -6.97666e-23)
(0.129735 0.0338402 -2.13815e-22)
(0.147302 0.0353924 -4.04255e-22)
(0.0986935 0.0201419 0)
(0.101704 0.021989 -3.74846e-22)
(0.104205 0.0259076 0)
(0.108997 0.0270016 -2.69615e-22)
(0.112692 0.0284641 0)
(0.116165 0.0297143 0)
(0.125403 0.0319581 0)
(0.129408 0.0277309 -7.54395e-23)
(0.130452 0.0311546 0)
(0.141686 0.0266672 0)
(0.101675 0.0199552 3.74416e-22)
(0.103799 0.0202563 7.18262e-22)
(0.107016 0.0231639 2.99419e-22)
(0.111021 0.0235889 2.69616e-22)
(0.114483 0.0255627 0)
(0.118527 0.026034 -1.15097e-22)
(0.124754 0.0266826 0)
(0.12903 0.0215197 7.54394e-23)
(0.132944 0.0249355 0)
(0.141064 0.0214467 0)
(0.104074 0.01757 -3.74417e-22)
(0.106545 0.0186523 -3.43415e-22)
(0.109336 0.02122 -2.99419e-22)
(0.112673 0.0217789 0)
(0.116304 0.0227539 0)
(0.119956 0.0229451 1.15098e-22)
(0.125517 0.0239594 0)
(0.129258 0.0212865 0)
(0.132314 0.0212385 0)
(0.138251 0.0177071 0)
(0.106337 0.0164314 0)
(0.108195 0.0171372 -2.93754e-22)
(0.110899 0.018773 0)
(0.114222 0.0190315 -2.10016e-22)
(0.117501 0.0202047 0)
(0.12082 0.019826 0)
(0.125206 0.0200537 -2.80948e-23)
(0.129154 0.0173272 4.63123e-23)
(0.132427 0.0174728 0)
(0.136524 0.0140492 1.93233e-22)
(0.107991 0.0145813 0)
(0.10988 0.0153575 2.93754e-22)
(0.112569 0.0167352 0)
(0.11527 0.0170911 2.10016e-22)
(0.1184 0.01758 0)
(0.121627 0.0173896 0)
(0.125442 0.0175371 2.80949e-23)
(0.128604 0.0156276 -4.63124e-23)
(0.131544 0.0147013 0)
(0.134868 0.0119341 -1.93233e-22)
(0.109488 0.0130944 1.40742e-22)
(0.111176 0.013754 0)
(0.113548 0.0147081 0)
(0.116198 0.0147863 9.32373e-23)
(0.119072 0.0153629 0)
(0.121935 0.0148568 0)
(0.125162 0.01472 0)
(0.128186 0.0129138 -1.17083e-23)
(0.130831 0.0120889 0)
(0.133398 0.00948396 0)
(0.110645 0.011501 -7.28415e-24)
(0.112227 0.0120595 0)
(0.114538 0.0127843 1.07341e-22)
(0.116871 0.0129286 -4.10105e-24)
(0.119484 0.0131642 0)
(0.122207 0.0127496 0)
(0.125032 0.0125122 1.98794e-23)
(0.127573 0.0110954 1.17083e-23)
(0.129967 0.0100687 -3.25991e-23)
(0.132136 0.00794284 -5.90776e-23)
(0.111592 0.0100026 -5.98217e-24)
(0.11312 0.0104582 0)
(0.115176 0.0110182 -4.38335e-24)
(0.117378 0.0109895 -3.1031e-24)
(0.11979 0.0112169 6.68113e-23)
(0.122226 0.0107159 -4.52036e-23)
(0.124717 0.010377 2.49259e-24)
(0.127034 0.00910883 -1.48026e-24)
(0.129161 0.00818035 7.15525e-24)
(0.131022 0.00629286 9.5024e-24)
(0.112349 0.00852964 -1.27477e-22)
(0.113793 0.0088976 0)
(0.115727 0.00928957 -1.02958e-22)
(0.117751 0.00929162 -8.60335e-23)
(0.119943 0.00935909 -6.68113e-23)
(0.122203 0.00891699 9.10332e-23)
(0.124436 0.00854973 -2.23721e-23)
(0.126487 0.00750338 1.48026e-24)
(0.128408 0.00662304 2.54439e-23)
(0.130056 0.00506679 4.95754e-23)
(0.112934 0.00711281 0)
(0.114345 0.00738911 0)
(0.116114 0.00769465 0)
(0.118 0.00762862 0)
(0.12003 0.00765835 0)
(0.122087 0.00723297 -4.58296e-23)
(0.124114 0.00684934 0)
(0.12599 0.00595258 0)
(0.127731 0.00517843 0)
(0.129227 0.00386743 0)
(0.113387 0.00573683 0)
(0.11475 0.00594696 0)
(0.116409 0.0061504 0)
(0.118165 0.00609575 0)
(0.120044 0.00606145 0)
(0.121943 0.00568673 -2.39304e-23)
(0.123813 0.00532363 0)
(0.125536 0.00458431 0)
(0.127143 0.00391522 0)
(0.128518 0.00285359 0)
(0.113725 0.00440566 0)
(0.115042 0.00454715 0)
(0.116624 0.00468249 4.66298e-23)
(0.118246 0.00461265 0)
(0.120024 0.00454992 3.26865e-23)
(0.121755 0.00422081 2.39304e-23)
(0.123525 0.00388875 0)
(0.125105 0.00328849 6.68013e-24)
(0.126622 0.00272891 0)
(0.127877 0.00188969 0)
(0.113956 0.00311741 0)
(0.115164 0.00320597 0)
(0.116722 0.00327791 -4.66299e-23)
(0.11815 0.00321073 0)
(0.119884 0.00312131 -3.26865e-23)
(0.121372 0.00284846 0)
(0.123114 0.00256174 0)
(0.124447 0.00209268 -6.68015e-24)
(0.125931 0.00163673 0)
(0.126912 0.00101342 0)
(0.113138 0.00182102 -1.39462e-23)
(0.114015 0.00185703 -1.28239e-23)
(0.115448 0.0018532 -1.15158e-23)
(0.116428 0.00179021 0)
(0.118037 0.00167572 -8.29918e-24)
(0.118982 0.00148086 0)
(0.120606 0.0012397 -4.37552e-24)
(0.121293 0.00091727 0)
(0.122647 0.000569067 -3.20053e-26)
(0.122805 0.000166368 2.19576e-24)
(0.0913036 0.000526298 1.39447e-23)
(0.0920992 0.000491846 1.28224e-23)
(0.093158 0.000426253 1.15143e-23)
(0.0938783 0.000360762 0)
(0.0949213 0.000245792 8.29804e-24)
(0.0953778 0.000134149 0)
(0.0961924 -1.28907e-05 4.37485e-24)
(0.0961341 -0.000170173 0)
(0.0964316 -0.00035414 3.19997e-26)
(0.0955164 -0.000516098 -2.19536e-24)
(-0.00453371 -0.00362318 0)
(-0.0167343 0.00251591 0)
(-0.0478211 0.00702828 0)
(-0.0744564 0.00840811 0)
(-0.0888291 0.00470479 0)
(-0.0930176 0.000191061 0)
(-0.0832463 -0.00320934 0)
(-0.0664076 -0.0059957 0)
(-0.0450518 -0.00632161 0)
(-0.0226612 -0.00669144 0)
(-0.00126916 -0.00572608 0)
(0.0169122 -0.0045482 0)
(0.0315678 -0.0032514 0)
(0.0425947 -0.00210085 0)
(0.0505323 -0.00120219 0)
(0.0559933 -0.000566696 0)
(0.0595906 -0.00016078 0)
(0.0618584 6.91448e-05 0)
(0.0632258 0.000180176 0)
(0.064015 0.000219343 0)
(0.0644503 0.000218788 0)
(0.0646779 0.000199347 0)
(0.0647883 0.000173288 0)
(0.064835 0.00014698 0)
(0.0648484 0.000123178 0)
(0.0648451 0.000102687 0)
(0.0648344 8.52682e-05 0)
(0.0648203 7.09141e-05 0)
(0.0648064 5.8916e-05 0)
(0.0647932 4.92092e-05 0)
(0.0647811 4.07704e-05 0)
(0.0647728 3.41776e-05 0)
(0.064762 2.79608e-05 0)
(0.0647617 2.33056e-05 0)
(0.0647511 1.86534e-05 0)
(0.0647609 1.48796e-05 0)
(0.0647502 1.15493e-05 0)
(0.064771 7.86637e-06 0)
(0.0647618 6.03475e-06 0)
(0.0647911 1.24594e-06 0)
(-0.0033949 0.0183462 0)
(-0.0260015 0.0299795 0)
(-0.0540056 0.032433 0)
(-0.0890614 0.0234532 0)
(-0.0975353 0.0100407 0)
(-0.101693 -0.00192384 0)
(-0.0860673 -0.0158414 0)
(-0.0697856 -0.0211776 0)
(-0.0426691 -0.025167 0)
(-0.0186113 -0.0247933 0)
(0.00561308 -0.0224482 0)
(0.0261042 -0.0188619 0)
(0.0429894 -0.0148939 0)
(0.0562252 -0.0112227 0)
(0.0664489 -0.00815025 0)
(0.0742549 -0.00573029 0)
(0.0801501 -0.00391093 0)
(0.0845531 -0.00260002 0)
(0.0878131 -0.00169235 0)
(0.0902166 -0.00108599 0)
(0.0919912 -0.000693416 0)
(0.0933117 -0.00044523 0)
(0.0943061 -0.000290544 0)
(0.0950659 -0.000194297 0)
(0.0956552 -0.000134025 0)
(0.096119 -9.51619e-05 0)
(0.0964882 -7.04472e-05 0)
(0.0967872 -5.25215e-05 0)
(0.097028 -4.20556e-05 0)
(0.0972306 -3.16961e-05 0)
(0.0973896 -2.80927e-05 0)
(0.0975356 -2.12228e-05 0)
(0.0976383 -2.0744e-05 0)
(0.0977519 -1.68101e-05 0)
(0.0978147 -1.75309e-05 0)
(0.0979116 -1.59835e-05 0)
(0.097945 -1.75567e-05 0)
(0.098036 -1.84511e-05 0)
(0.0980485 -1.9597e-05 0)
(0.0981388 -2.40818e-05 0)
(-0.0219441 0.0205776 0)
(-0.0474255 0.0351139 0)
(-0.0649139 0.0455777 0)
(-0.0887998 0.0372801 0)
(-0.101124 0.0145686 0)
(-0.098463 -0.00710013 0)
(-0.0848165 -0.0265221 0)
(-0.0643954 -0.0385041 0)
(-0.0388246 -0.0438824 0)
(-0.0143688 -0.0425151 0)
(0.00966968 -0.0383727 0)
(0.0301939 -0.0318404 0)
(0.0467708 -0.0250104 0)
(0.059363 -0.0189895 0)
(0.0688624 -0.014139 0)
(0.0761277 -0.0103832 0)
(0.0817725 -0.00753466 0)
(0.0861867 -0.00541464 0)
(0.0896335 -0.00387096 0)
(0.0923154 -0.00277042 0)
(0.0943989 -0.00199777 0)
(0.096021 -0.00145944 0)
(0.0972902 -0.00108423 0)
(0.0982911 -0.000820226 0)
(0.0990863 -0.000632204 0)
(0.0997248 -0.000494626 0)
(0.100239 -0.000394137 0)
(0.100662 -0.000315267 0)
(0.101002 -0.000259149 0)
(0.101293 -0.000209001 0)
(0.10152 -0.000177612 0)
(0.101729 -0.000143892 0)
(0.101878 -0.000125952 0)
(0.102037 -0.000103948 0)
(0.10213 -9.38452e-05 0)
(0.102261 -7.953e-05 0)
(0.102314 -7.53001e-05 0)
(0.10243 -6.71461e-05 0)
(0.102453 -6.59366e-05 0)
(0.102565 -6.41926e-05 0)
(-0.00745382 0.0605397 0)
(-0.0183653 0.066789 0)
(-0.0349529 0.0623053 0)
(-0.0664398 0.0541266 0)
(-0.0692268 0.0183474 0)
(-0.0703196 -0.0138579 0)
(-0.0564138 -0.0426021 0)
(-0.0390133 -0.0576331 0)
(-0.0173567 -0.0626942 0)
(0.00193118 -0.0610268 0)
(0.0212831 -0.0551638 0)
(0.0388276 -0.0457933 0)
(0.0536549 -0.0356446 0)
(0.0651628 -0.0267548 0)
(0.0736708 -0.0198356 0)
(0.0798867 -0.0147005 0)
(0.084533 -0.0109077 0)
(0.0881249 -0.00808551 0)
(0.0909688 -0.00598659 0)
(0.0932441 -0.00444004 0)
(0.0950691 -0.00331313 0)
(0.0965343 -0.00249768 0)
(0.0977124 -0.00190786 0)
(0.0986635 -0.00147784 0)
(0.0994339 -0.00116136 0)
(0.100063 -0.000922886 0)
(0.100576 -0.000744029 0)
(0.101001 -0.000601283 0)
(0.101347 -0.000496496 0)
(0.101644 -0.000403954 0)
(0.101877 -0.000341974 0)
(0.102092 -0.000279433 0)
(0.102246 -0.000241867 0)
(0.10241 -0.000200051 0)
(0.102508 -0.000177878 0)
(0.102642 -0.00014915 0)
(0.102698 -0.000138496 0)
(0.102817 -0.000119882 0)
(0.102841 -0.000115917 0)
(0.102955 -0.000106786 0)
(0.0124123 0.0481197 0)
(0.0203215 0.0529991 0)
(-0.00866253 0.0704182 0)
(-0.0186369 0.0589118 0)
(-0.0108059 0.0190987 0)
(-0.00245344 -0.0162231 0)
(0.0107546 -0.0485499 0)
(0.0191905 -0.0683436 0)
(0.0327274 -0.0734467 0)
(0.0418593 -0.0706159 0)
(0.050151 -0.064606 0)
(0.0581288 -0.0549761 0)
(0.0653445 -0.0436925 0)
(0.0719919 -0.0331913 0)
(0.0781228 -0.0246229 0)
(0.0832902 -0.018153 0)
(0.0872967 -0.0134494 0)
(0.09031 -0.0100504 0)
(0.0926134 -0.00756843 0)
(0.0944357 -0.00573682 0)
(0.0959167 -0.00437902 0)
(0.0971368 -0.00337141 0)
(0.098146 -0.0026225 0)
(0.098982 -0.00206224 0)
(0.0996737 -0.00164048 0)
(0.100248 -0.00131647 0)
(0.100722 -0.00106937 0)
(0.10112 -0.000869818 0)
(0.101446 -0.000720977 0)
(0.101727 -0.000589523 0)
(0.101949 -0.000499153 0)
(0.102155 -0.000409527 0)
(0.102302 -0.000353505 0)
(0.102459 -0.000292738 0)
(0.102554 -0.00025911 0)
(0.102682 -0.000216459 0)
(0.102736 -0.000199674 0)
(0.10285 -0.000170851 0)
(0.102874 -0.00016427 0)
(0.102983 -0.00014794 0)
(0.0392095 0.0282399 0)
(0.037165 0.0783667 0)
(0.0318674 0.0901508 0)
(0.0398538 0.063701 0)
(0.0582575 0.011744 0)
(0.0724381 -0.0264751 0)
(0.0832588 -0.0539243 0)
(0.0858561 -0.0720063 0)
(0.0888929 -0.0775555 0)
(0.0909918 -0.0732978 0)
(0.0900937 -0.0662356 0)
(0.0900093 -0.0558948 0)
(0.0889749 -0.0444896 0)
(0.0866639 -0.035052 0)
(0.0859039 -0.0274377 0)
(0.0873375 -0.0210234 0)
(0.089783 -0.0157828 0)
(0.0921758 -0.0117754 0)
(0.0941237 -0.0088466 0)
(0.0956418 -0.00673249 0)
(0.0968493 -0.00519415 0)
(0.0978418 -0.0040578 0)
(0.0986749 -0.00320575 0)
(0.09938 -0.00255721 0)
(0.0999763 -0.00205903 0)
(0.100481 -0.00166865 0)
(0.100904 -0.00136573 0)
(0.101264 -0.00111765 0)
(0.101561 -0.000930045 0)
(0.101819 -0.000763538 0)
(0.102024 -0.000647212 0)
(0.102215 -0.000532478 0)
(0.102352 -0.000459299 0)
(0.102499 -0.000380673 0)
(0.102587 -0.000336295 0)
(0.102707 -0.000280457 0)
(0.102758 -0.00025784 0)
(0.102865 -0.000219305 0)
(0.102887 -0.00021022 0)
(0.102989 -0.000186968 0)
(-0.0420319 -0.000930549 0)
(0.030916 0.0616665 0)
(0.0313314 0.0708613 0)
(0.0741214 0.0424223 0)
(0.101943 -0.00294485 0)
(0.120172 -0.0321044 0)
(0.129045 -0.0531925 0)
(0.123277 -0.0712079 0)
(0.117341 -0.0772334 0)
(0.117375 -0.0716922 0)
(0.111479 -0.0659591 0)
(0.106857 -0.056602 0)
(0.107245 -0.0422766 0)
(0.104829 -0.0308453 0)
(0.0994667 -0.0247553 0)
(0.0954457 -0.0207715 0)
(0.0941374 -0.0168953 0)
(0.0945815 -0.0131974 0)
(0.0956541 -0.0101097 0)
(0.0967611 -0.00774996 0)
(0.0977212 -0.006007 0)
(0.0985287 -0.00471822 0)
(0.0992145 -0.00375073 0)
(0.0998037 -0.003011 0)
(0.10031 -0.00243887 0)
(0.100746 -0.00198689 0)
(0.101116 -0.00163337 0)
(0.101434 -0.00134186 0)
(0.101699 -0.00111976 0)
(0.101931 -0.000921997 0)
(0.102115 -0.000782522 0)
(0.102288 -0.000645183 0)
(0.102413 -0.000556575 0)
(0.102547 -0.000461695 0)
(0.102628 -0.000407562 0)
(0.102737 -0.000339631 0)
(0.102784 -0.000311678 0)
(0.102882 -0.000264176 0)
(0.102902 -0.000252794 0)
(0.102996 -0.000223085 0)
(0.106372 0.0336532 0)
(0.0930345 0.0351935 0)
(0.0909025 0.0470408 0)
(0.118941 0.0133409 0)
(0.133739 -0.0271836 0)
(0.142564 -0.0475664 0)
(0.156477 -0.0565879 0)
(0.146921 -0.0679464 0)
(0.125382 -0.0767419 0)
(0.122354 -0.0683048 0)
(0.117987 -0.0574393 0)
(0.104812 -0.0526947 0)
(0.100141 -0.0435488 0)
(0.103229 -0.0305762 0)
(0.105049 -0.021394 0)
(0.103445 -0.0171712 0)
(0.10079 -0.0148621 0)
(0.0989731 -0.0125792 0)
(0.0983287 -0.0101842 0)
(0.0984401 -0.00803597 0)
(0.098872 -0.00632256 0)
(0.0993812 -0.00502867 0)
(0.0998717 -0.00405547 0)
(0.100317 -0.00330599 0)
(0.100714 -0.00271614 0)
(0.101065 -0.00223899 0)
(0.10137 -0.00185744 0)
(0.101638 -0.00153644 0)
(0.101864 -0.00128835 0)
(0.102064 -0.00106493 0)
(0.102225 -0.000905816 0)
(0.102377 -0.000748549 0)
(0.102487 -0.000646214 0)
(0.102605 -0.000536594 0)
(0.102677 -0.000473588 0)
(0.102774 -0.000394551 0)
(0.102816 -0.00036169 0)
(0.102903 -0.000305878 0)
(0.102921 -0.000292376 0)
(0.103005 -0.000256619 0)
(0.137001 0.0405208 0)
(0.146381 0.0475396 0)
(0.151592 0.0538657 0)
(0.177726 0.0197598 0)
(0.175154 -0.0209403 0)
(0.15955 -0.0477411 0)
(0.163477 -0.0528127 0)
(0.162717 -0.0473972 0)
(0.137393 -0.0593601 0)
(0.117589 -0.0661485 0)
(0.112118 -0.0526493 0)
(0.100039 -0.0421592 0)
(0.0874203 -0.0389947 0)
(0.0852299 -0.0331428 0)
(0.0905678 -0.0247415 0)
(0.0969899 -0.0179751 0)
(0.100614 -0.013967 0)
(0.101395 -0.0116584 0)
(0.100906 -0.00991771 0)
(0.100352 -0.00832724 0)
(0.100129 -0.00686197 0)