/*--------------------------------*- C++ -*----------------------------------*\
| =========                 |                                                 |
| \\      /  F ield         | OpenFOAM: The Open Source CFD Toolbox           |
|  \\    /   O peration     | Version:  2112                                  |
|   \\  /    A nd           | Website:  www.openfoam.com                      |
|    \\/     M anipulation  |                                                 |
\*---------------------------------------------------------------------------*/
FoamFile
{
    version     2.0;
    format      ascii;
    arch        "LSB;label=32;scalar=64";
    class       volScalarField;
    location    "0.27";
    object      nut;
}
// * * * * * * * * * * * * * * * * * * * * * * * * * * * * * * * * * * * * * //

dimensions      [0 2 -1 0 0 0 0];

internalField   nonuniform List<scalar> 
1880
(
3.4935e-11
4.45026e-12
4.39435e-13
6.82872e-14
9.46185e-15
1.84984e-13
1.83116e-14
5.69157e-14
6.00606e-14
1.17733e-13
4.03762e-14
6.83242e-14
3.81896e-14
1.1262e-13
5.18375e-14
1.64804e-13
8.09833e-13
3.35646e-13
4.78656e-13
1.02653e-12
3.15745e-13
1.56568e-12
9.12899e-13
8.33678e-13
1.66903e-14
8.12675e-11
1.84938e-12
1.3939e-10
1.80489e-09
4.49602e-11
4.78925e-09
5.54842e-09
1.84472e-09
9.20124e-11
1.934e-10
3.4143e-11
3.32316e-11
2.59805e-11
5.23538e-11
7.42149e-12
7.90195e-12
1.61693e-12
6.88606e-12
8.09742e-12
1.30207e-13
1.18684e-11
2.63494e-12
2.51827e-11
1.86469e-11
7.9522e-12
1.16222e-11
2.52157e-11
1.66184e-10
4.10247e-10
1.56491e-09
8.71629e-10
3.63504e-09
6.49916e-09
2.07551e-09
1.97095e-08
1.70472e-09
2.2081e-09
1.16233e-09
1.48999e-10
2.13295e-09
5.45332e-10
2.14637e-09
2.77952e-09
1.18063e-09
3.71685e-09
8.57055e-10
1.05846e-09
1.3411e-09
6.46248e-10
2.70522e-10
2.10751e-09
8.31505e-12
2.492e-09
5.73454e-10
1.37092e-11
4.37179e-09
6.27145e-12
2.38072e-09
7.84813e-09
2.87417e-10
2.21456e-08
1.60365e-08
1.13106e-08
5.03474e-08
3.45145e-08
2.53457e-12
9.9084e-11
5.71569e-10
2.8239e-09
2.53976e-09
4.09292e-09
2.88204e-10
1.12618e-08
1.49084e-09
1.78816e-08
1.22298e-09
4.56138e-09
1.8309e-08
3.1296e-09
1.26491e-08
7.15872e-09
2.77476e-09
2.55565e-09
2.42101e-09
4.98927e-09
1.13682e-08
8.36744e-09
1.41289e-08
1.19589e-08
1.45364e-08
1.9274e-08
1.77399e-08
2.47749e-08
3.19167e-08
4.1454e-08
2.56659e-11
4.23153e-10
3.96341e-10
5.67363e-10
7.89618e-10
1.83323e-13
1.71386e-09
3.33816e-10
1.44043e-09
3.97089e-09
7.82685e-09
5.55673e-09
5.74618e-09
1.79948e-08
8.04418e-09
5.22416e-09
3.78486e-09
2.30649e-09
1.77374e-08
3.1271e-09
2.1543e-10
6.69907e-09
5.23279e-09
1.06826e-08
8.93479e-09
1.66797e-08
1.4856e-08
1.86031e-08
2.49523e-08
3.14517e-08
4.89136e-13
2.07527e-12
2.30295e-10
5.4635e-11
1.24799e-09
3.96169e-10
5.72072e-10
1.15119e-09
9.87029e-10
2.61412e-09
4.82717e-09
6.38754e-09
9.28088e-10
2.57726e-09
3.30484e-09
2.80335e-09
8.73041e-10
8.28946e-10
1.65642e-09
3.12166e-09
1.62271e-09
5.81615e-09
5.44659e-09
9.10988e-09
9.43493e-09
1.3603e-08
1.59704e-08
1.8124e-08
2.43012e-08
2.45114e-08
1.51347e-12
2.92978e-11
2.70746e-10
5.19669e-10
9.25944e-10
2.83559e-10
2.51004e-09
4.34006e-10
1.84679e-09
9.70896e-10
8.38272e-09
6.07369e-09
4.17641e-09
1.79393e-09
6.24718e-09
2.35183e-09
1.19047e-09
2.65213e-09
1.92959e-09
3.3752e-09
4.36735e-09
4.45621e-09
6.49772e-09
8.22176e-09
9.1855e-09
1.22672e-08
1.46996e-08
1.52948e-08
2.02566e-08
2.2559e-08
1.76934e-12
1.43881e-11
3.85718e-10
4.19894e-10
1.18104e-09
7.5982e-10
1.78196e-09
1.13156e-09
1.54448e-09
1.44707e-09
5.83464e-09
5.64078e-09
2.00199e-09
1.65952e-09
3.37463e-09
2.32554e-09
2.77434e-09
2.62147e-09
3.69462e-09
4.65442e-09
5.18156e-09
6.80971e-09
8.18919e-09
8.57775e-09
1.02027e-08
1.19395e-08
1.46833e-08
1.53243e-08
2.01157e-08
1.9406e-08
4.74526e-12
2.82498e-11
5.34948e-10
7.25883e-10
1.30573e-09
1.07146e-09
2.31632e-09
1.44967e-09
1.89929e-09
1.63937e-09
5.87496e-09
4.646e-09
2.21164e-09
2.00056e-09
2.6062e-09
2.91563e-09
3.43679e-09
3.55046e-09
3.8152e-09
4.10956e-09
5.79713e-09
6.58826e-09
8.10653e-09
8.91876e-09
9.70358e-09
1.10587e-08
1.35287e-08
1.38967e-08
1.75607e-08
1.82669e-08
1.25392e-11
9.74244e-11
7.13455e-10
1.07808e-09
1.49587e-09
1.39202e-09
2.24148e-09
1.73214e-09
2.0985e-09
1.88406e-09
4.74877e-09
3.99139e-09
2.41508e-09
2.36762e-09
2.99122e-09
3.2687e-09
3.77777e-09
3.67573e-09
4.79717e-09
5.27592e-09
6.28522e-09
6.79928e-09
8.11492e-09
8.41685e-09
9.74799e-09
1.09668e-08
1.31168e-08
1.35328e-08
1.68042e-08
1.67171e-08
4.65446e-11
2.85426e-10
8.8092e-10
1.30644e-09
1.68092e-09
1.68915e-09
2.14139e-09
1.96863e-09
2.43038e-09
2.11167e-09
3.77154e-09
3.71021e-09
2.78562e-09
2.95874e-09
2.76324e-09
3.65837e-09
4.48471e-09
3.97717e-09
4.87254e-09
5.37647e-09
6.1654e-09
6.92061e-09
7.57021e-09
8.46603e-09
9.46078e-09
1.04511e-08
1.23439e-08
1.29925e-08
1.53205e-08
1.59081e-08
9.76384e-11
5.21947e-10
9.56537e-10
1.58581e-09
1.75879e-09
1.84348e-09
2.33991e-09
2.07071e-09
2.63225e-09
2.33526e-09
3.87833e-09
3.41533e-09
3.11486e-09
3.38991e-09
3.36759e-09
3.93783e-09
4.56223e-09
4.32452e-09
5.39123e-09
5.51339e-09
6.25556e-09
6.69996e-09
7.62308e-09
8.38923e-09
9.43818e-09
1.03111e-08
1.19793e-08
1.24931e-08
1.4483e-08
1.50782e-08
3.11936e-11
5.2071e-10
9.27836e-10
1.42398e-09
1.89361e-09
2.03315e-09
2.04085e-09
2.15426e-09
2.96659e-09
2.42478e-09
3.13389e-09
3.56698e-09
3.66935e-09
3.4534e-09
3.33606e-09
4.18395e-09
5.03805e-09
4.57403e-09
5.23723e-09
5.77202e-09
6.12247e-09
6.86328e-09
7.42472e-09
8.36458e-09
9.31818e-09
1.00568e-08
1.1355e-08
1.21255e-08
1.34588e-08
1.4384e-08
1.50168e-11
4.66595e-10
8.38672e-10
1.71379e-09
1.78144e-09
2.03869e-09
2.3071e-09
2.23194e-09
2.93846e-09
2.7075e-09
3.43644e-09
3.53338e-09
3.70982e-09
3.86736e-09
3.79053e-09
4.38823e-09
5.08651e-09
4.9306e-09
5.63431e-09
5.83078e-09
6.36984e-09
6.92395e-09
7.58462e-09
8.41383e-09
9.23659e-09
9.86012e-09
1.10248e-08
1.16555e-08
1.28244e-08
1.37381e-08
7.76762e-13
2.13445e-10
5.86934e-10
8.14556e-10
1.99022e-09
2.14009e-09
1.60212e-09
2.06845e-09
3.12112e-09
2.39844e-09
2.77432e-09
3.64565e-09
3.97477e-09
3.56172e-09
3.5943e-09
4.48662e-09
5.36299e-09
5.0332e-09
5.37463e-09
6.01639e-09
6.39914e-09
6.89232e-09
7.39741e-09
8.10515e-09
8.92309e-09
9.5215e-09
1.0345e-08
1.11715e-08
1.20446e-08
1.3003e-08
8.02223e-11
7.14053e-10
1.03398e-09
1.5777e-09
1.67626e-09
1.92819e-09
2.11638e-09
2.13569e-09
2.53472e-09
2.89983e-09
3.19364e-09
3.51118e-09
3.64441e-09
3.86419e-09
3.86012e-09
4.56624e-09
5.21623e-09
5.2236e-09
5.73104e-09
6.24697e-09
6.66152e-09
7.16234e-09
7.5328e-09
8.14333e-09
8.70003e-09
9.13004e-09
9.89405e-09
1.05759e-08
1.14504e-08
1.23569e-08
1.18652e-12
1.13901e-11
2.37873e-10
3.31224e-10
1.739e-09
1.48226e-09
7.94905e-10
1.27404e-09
2.25691e-09
1.69009e-09
2.09765e-09
3.4998e-09
3.69991e-09
3.14601e-09
3.48127e-09
4.63487e-09
5.12426e-09
5.1447e-09
5.57873e-09
6.45239e-09
6.87859e-09
7.03443e-09
7.15869e-09
7.39728e-09
7.83163e-09
8.18266e-09
8.76817e-09
9.56761e-09
1.05215e-08
1.14769e-08
2.09613e-09
2.53202e-09
1.48998e-09
1.43809e-09
2.02801e-09
2.33832e-09
3.46702e-09
3.60243e-09
3.10948e-09
3.19292e-09
1.16318e-09
1.39462e-09
8.68377e-10
9.0095e-10
7.85677e-11
9.72676e-12
7.99787e-13
2.58078e-11
1.09888e-11
1.31569e-14
1.31233e-11
1.2001e-10
3.76728e-10
3.54387e-10
1.4341e-10
1.62016e-12
4.49221e-11
5.53219e-10
1.69502e-09
3.61648e-09
4.97941e-09
5.57031e-09
1.09261e-09
1.26424e-10
3.66684e-11
4.11809e-12
8.67373e-13
2.1459e-13
2.27971e-12
5.82398e-13
2.45527e-12
1.2769e-12
5.67562e-13
3.63761e-13
6.41325e-12
1.2748e-11
5.56897e-12
1.17545e-12
1.85981e-12
6.11912e-12
1.69767e-11
4.19428e-11
6.43924e-11
6.90544e-11
5.07494e-11
2.42891e-11
1.05946e-11
3.14665e-12
4.49927e-13
1.41024e-14
3.46385e-11
4.76409e-12
2.7142e-13
1.99568e-14
4.83202e-14
2.62753e-14
1.27225e-14
5.62609e-17
1.5341e-15
4.52446e-15
1.04647e-16
6.79752e-17
8.67205e-17
3.31177e-14
5.62912e-14
5.66696e-15
5.56352e-16
2.49977e-15
1.36981e-14
1.66171e-13
5.28455e-13
7.90712e-13
6.68333e-13
3.64515e-13
1.18442e-13
2.99602e-14
5.69989e-15
1.62362e-15
3.30433e-17
4.81201e-16
4.03269e-09
2.53844e-09
1.75296e-09
2.18565e-12
1.02593e-10
4.42563e-11
1.91471e-11
1.72105e-10
2.39573e-11
4.57473e-09
2.08982e-08
3.60612e-08
2.34737e-09
1.75848e-08
2.08855e-08
3.39882e-08
1.6529e-09
4.2827e-07
2.17312e-10
8.08902e-08
8.1337e-09
6.55996e-08
6.5691e-08
1.54035e-09
1.40957e-09
6.08482e-08
5.86131e-08
7.76447e-08
5.52446e-07
1.10913e-07
4.99929e-08
1.88444e-08
4.85327e-08
4.97837e-08
3.42001e-08
3.53533e-08
4.09204e-08
5.51735e-08
5.24242e-08
1.59516e-10
3.88633e-08
3.62963e-08
3.86587e-08
3.35276e-08
2.85118e-08
3.81502e-08
4.56175e-08
4.23256e-08
4.72669e-08
2.0424e-08
4.07762e-08
2.7571e-08
3.4186e-08
3.48993e-08
3.24919e-08
3.52661e-08
3.49603e-08
3.79165e-08
4.81317e-08
2.8914e-08
3.17483e-08
2.65846e-08
2.9956e-08
2.91909e-08
2.73734e-08
3.13224e-08
3.58518e-08
3.52749e-08
3.64823e-08
3.16352e-08
3.16857e-08
2.37104e-08
2.65861e-08
2.83124e-08
2.75504e-08
2.90732e-08
3.13719e-08
3.26221e-08
3.27006e-08
2.79134e-08
2.56694e-08
2.205e-08
2.4598e-08
2.51362e-08
2.48576e-08
2.75261e-08
2.91026e-08
2.77032e-08
2.87076e-08
2.67927e-08
2.36661e-08
2.01745e-08
2.24725e-08
2.38777e-08
2.36321e-08
2.48047e-08
2.64801e-08
2.70732e-08
2.49003e-08
2.22939e-08
2.02498e-08
1.89688e-08
2.0828e-08
2.17063e-08
2.21194e-08
2.36838e-08
2.37388e-08
2.30457e-08
2.3064e-08
2.15827e-08
1.84133e-08
1.75693e-08
1.94378e-08
2.0605e-08
2.05395e-08
2.15102e-08
2.20397e-08
2.17078e-08
2.02786e-08
1.86753e-08
1.65172e-08
1.65937e-08
1.8076e-08
1.90468e-08
1.94172e-08
2.02003e-08
1.99135e-08
1.93439e-08
1.88658e-08
1.75274e-08
1.54081e-08
1.55629e-08
1.69479e-08
1.79537e-08
1.81431e-08
1.85941e-08
1.85271e-08
1.79612e-08
1.71308e-08
1.58193e-08
1.423e-08
1.47139e-08
1.59046e-08
1.6807e-08
1.71407e-08
1.7439e-08
1.71309e-08
1.65324e-08
1.59173e-08
1.47054e-08
1.35224e-08
1.39195e-08
1.50154e-08
1.57779e-08
1.61457e-08
1.63129e-08
1.60902e-08
1.55233e-08
1.48263e-08
1.36653e-08
1.25663e-08
1.31019e-08
1.41938e-08
1.48078e-08
1.52996e-08
1.53388e-08
1.51942e-08
1.44974e-08
1.39692e-08
1.25657e-08
5.31807e-09
4.94851e-09
6.69052e-09
6.13487e-09
7.4093e-09
6.16019e-09
6.65733e-09
4.94642e-09
4.72354e-09
3.01664e-09
3.32594e-14
5.02916e-13
8.19857e-13
3.58456e-12
7.14925e-12
1.34265e-11
1.80848e-11
2.42397e-11
2.40356e-11
2.18645e-11
8.88867e-15
5.79245e-15
7.92723e-15
1.10683e-14
1.62759e-14
3.2816e-14
3.89036e-14
6.51992e-14
5.6805e-14
3.91108e-14
4.11047e-08
1.50882e-08
5.34998e-08
3.49866e-08
1.22307e-08
4.5178e-09
1.03073e-09
6.61368e-10
4.13719e-10
5.88243e-10
1.02531e-09
2.49786e-09
9.21802e-09
3.84289e-08
1.33312e-07
7.91448e-08
1.11393e-08
1.4438e-09
2.48228e-10
5.43087e-11
1.24406e-11
2.24248e-12
2.49693e-13
4.39481e-15
4.22757e-15
4.16998e-14
8.39539e-14
9.75911e-14
7.93283e-14
5.06495e-14
2.62576e-14
1.20484e-14
4.84199e-15
1.93069e-15
7.54363e-16
3.08197e-16
1.4569e-16
5.48079e-17
4.17126e-17
6.71972e-17
4.72671e-08
4.8206e-07
2.67962e-08
1.18906e-07
1.72325e-07
1.07411e-07
9.36479e-11
1.04544e-06
3.80276e-07
4.20621e-11
1.63898e-08
5.13978e-08
1.04661e-07
1.21184e-07
1.24368e-07
1.14382e-07
9.57521e-08
7.34895e-08
4.96528e-08
2.73341e-08
1.20084e-08
4.37874e-09
1.37239e-09
3.6007e-10
7.51436e-11
1.11125e-11
8.16044e-13
1.73044e-14
1.15792e-13
3.08349e-13
4.43192e-13
3.98605e-13
3.19724e-13
2.00886e-13
1.3478e-13
7.29888e-14
4.77814e-14
2.289e-14
1.51632e-14
5.50476e-15
5.44891e-08
7.37314e-11
4.12191e-08
1.01875e-07
1.84867e-09
7.39128e-08
9.21552e-07
1.59151e-06
6.91317e-07
6.81974e-08
2.14181e-10
2.21287e-09
2.02862e-08
5.65928e-08
8.44649e-08
9.75514e-08
9.33577e-08
8.3321e-08
7.14604e-08
5.68474e-08
4.05834e-08
2.28211e-08
1.00655e-08
4.48146e-09
2.46174e-09
1.52173e-09
8.56723e-10
3.56368e-10
1.00174e-10
1.85941e-11
1.89425e-12
1.51367e-13
9.70893e-14
2.49788e-13
4.40423e-13
4.16767e-13
4.71471e-13
3.02362e-13
2.81107e-13
1.20195e-13
1.71733e-10
9.52309e-08
1.54387e-07
2.41773e-08
6.95824e-08
2.46892e-07
1.33711e-06
1.87859e-06
1.07187e-06
1.57058e-07
8.25569e-09
1.35737e-11
3.70277e-09
2.42968e-08
5.17596e-08
7.7089e-08
8.08509e-08
6.797e-08
5.93485e-08
4.26973e-08
2.26611e-08
1.74769e-08
1.94246e-08
1.03729e-08
2.64372e-09
1.20483e-09
1.51259e-09
2.38722e-09
2.93484e-09
2.69116e-09
1.89829e-09
9.86018e-10
3.36066e-10
6.40268e-11
2.74386e-12
9.45027e-14
3.95528e-12
6.29398e-12
1.25403e-11
6.61659e-12
1.66974e-08
1.60919e-07
1.52598e-07
1.35877e-08
1.42734e-07
1.00661e-06
1.9769e-06
2.28848e-06
1.87864e-06
6.49611e-07
1.91846e-08
2.74801e-11
2.54431e-09
1.84252e-08
4.35109e-08
6.89003e-08
8.22758e-08
6.66141e-08
4.59279e-08
3.21062e-08
3.83678e-10
1.39245e-09
5.19784e-10
7.13743e-12
6.08628e-10
5.36147e-09
1.16991e-09
8.20396e-10
1.72746e-09
2.71167e-09
2.95965e-09
2.59422e-09
1.98656e-09
1.38403e-09
8.58519e-10
4.64306e-10
1.64346e-10
4.20139e-11
2.03644e-12
4.4204e-13
1.81553e-06
1.08077e-07
8.99187e-08
1.03074e-09
1.66532e-07
6.29695e-07
1.64847e-06
2.16292e-06
1.93583e-06
1.34148e-06
3.53489e-07
3.1901e-10
9.92221e-09
3.14355e-08
5.14052e-08
5.36563e-08
6.52202e-08
2.27582e-08
1.38787e-08
3.09686e-08
2.18361e-08
6.00084e-08
5.18913e-09
1.0164e-10
3.07873e-12
1.91125e-10
9.64819e-10
2.74047e-09
3.37276e-09
2.4681e-09
2.38982e-09
2.26934e-09
1.8933e-09
1.43442e-09
1.03571e-09
7.6087e-10
6.06161e-10
5.45735e-10
4.93191e-10
5.02643e-10
1.40703e-08
2.58676e-07
2.18308e-07
2.05429e-07
1.54436e-10
1.07969e-06
2.4153e-06
2.47201e-06
2.09216e-06
1.75343e-06
1.05743e-06
7.50712e-08
3.16282e-09
5.41891e-08
8.76619e-08
7.29356e-08
5.20821e-08
5.08844e-08
1.00891e-09
3.50986e-10
2.41937e-08
8.95674e-09
7.6551e-09
8.99746e-09
3.58625e-09
2.07513e-09
1.54335e-09
1.26866e-09
1.22941e-09
1.41029e-09
2.03514e-09
1.90594e-09
1.50478e-09
1.11147e-09
7.60353e-10
4.8929e-10
3.92805e-10
3.22778e-10
3.50793e-10
4.19213e-10
3.45649e-08
2.17483e-08
3.89722e-09
6.87453e-08
7.79043e-08
5.38872e-10
9.76585e-07
1.95535e-06
2.08861e-06
2.02479e-06
1.30422e-06
9.28541e-08
5.92085e-09
7.65195e-08
8.0223e-08
3.57883e-08
5.9035e-08
5.82279e-08
4.64829e-08
1.56433e-08
2.37567e-08
1.3776e-08
1.2527e-10
9.19738e-11
3.30985e-09
1.63845e-08
1.83897e-08
8.89471e-09
3.28201e-09
9.63559e-10
2.29216e-10
3.45196e-11
1.29784e-10
4.56293e-10
6.57032e-10
4.72523e-10
3.81345e-10
4.07859e-10
4.80079e-10
5.43566e-10
7.80358e-08
1.21544e-09
1.02419e-08
1.98096e-08
1.10336e-08
1.46271e-07
9.47261e-07
1.6605e-06
1.88463e-06
1.96249e-06
1.3533e-06
7.78465e-10
9.0333e-08
1.05972e-07
7.16852e-08
2.74825e-08
3.97425e-09
2.80466e-08
4.15523e-08
3.67363e-08
3.35642e-08
2.94956e-08
1.74127e-08
3.33436e-09
5.62293e-10
6.33832e-10
1.892e-09
6.00272e-09
1.17498e-08
1.05229e-08
4.4019e-09
7.36089e-10
1.01297e-11
6.48824e-10
4.47989e-09
4.20784e-09
7.44918e-11
9.9828e-11
4.28505e-10
4.0569e-10
9.13725e-08
7.21718e-08
4.5574e-08
6.9585e-08
3.70153e-08
3.22967e-07
8.30106e-07
1.22904e-06
1.34976e-06
1.16236e-06
8.1998e-10
1.06731e-07
7.09443e-08
5.65264e-08
7.20406e-08
5.57292e-08
4.67887e-08
4.16018e-08
3.84057e-08
3.63155e-08
1.85756e-08
6.20068e-09
1.35023e-08
6.05353e-09
3.11368e-10
7.21879e-10
7.53914e-09
3.91847e-09
3.72036e-09
5.05652e-09
6.60226e-09
6.61977e-09
4.53009e-09
1.91404e-09
5.74209e-10
1.94895e-10
3.95001e-10
4.8615e-10
7.30114e-10
6.16232e-10
5.39111e-08
9.32146e-10
4.21088e-09
5.17493e-09
3.65645e-09
1.3372e-10
4.5886e-09
1.32239e-08
1.4822e-09
5.26879e-08
1.06303e-07
1.20182e-07
9.98011e-08
5.93365e-08
3.70617e-08
3.84208e-08
4.67374e-08
4.08474e-08
3.12096e-08
2.76966e-08
1.89997e-08
1.85838e-08
1.42589e-08
1.66317e-08
1.3732e-07
4.82451e-08
1.31113e-08
8.3493e-09
1.67625e-08
3.41453e-08
4.93228e-09
4.59275e-09
3.29574e-09
2.50775e-09
1.75763e-09
1.24471e-09
7.67877e-10
6.16427e-10
6.25998e-10
4.65004e-10
3.06109e-08
9.77709e-09
4.94517e-08
4.61875e-08
5.35481e-08
5.33532e-08
6.34011e-08
6.26906e-08
7.67126e-08
9.25508e-08
8.31548e-08
5.94088e-08
6.0127e-08
5.06852e-08
5.04173e-08
3.92603e-08
8.39331e-09
1.13254e-08
2.56414e-08
2.22671e-08
1.698e-09
2.59523e-07
5.06754e-08
1.67723e-08
2.96087e-09
1.45875e-09
1.21599e-08
6.159e-10
3.23144e-09
8.50373e-09
1.46119e-08
1.81152e-08
1.05087e-08
1.14575e-09
1.72914e-11
2.83046e-10
7.122e-10
7.0196e-10
8.86349e-10
6.37105e-10
7.38717e-09
3.26487e-08
4.90997e-08
4.30632e-08
4.20989e-08
5.59665e-08
5.54502e-08
5.16138e-08
5.7533e-08
6.88533e-08
6.79427e-08
5.42951e-08
3.3488e-08
5.4192e-08
5.07398e-08
4.563e-08
3.5017e-08
2.5144e-08
1.98605e-08
2.61156e-08
2.80608e-08
2.13856e-08
1.07011e-08
2.15237e-08
4.28505e-09
2.04526e-10
2.01178e-10
3.00914e-10
1.45415e-09
4.79809e-09
8.7459e-09
9.12981e-09
6.01163e-09
3.06856e-09
1.83199e-09
1.18821e-09
1.11399e-09
8.67888e-10
9.51286e-10
6.29915e-10
3.19023e-08
3.95299e-08
4.43095e-08
3.69776e-08
4.21317e-08
4.70615e-08
4.50512e-08
4.64076e-08
4.56634e-08
4.63663e-08
6.07565e-08
5.21668e-08
3.9362e-08
3.45584e-08
4.09124e-08
3.20444e-08
2.29249e-08
1.97245e-08
2.69129e-08
2.90234e-09
1.31755e-08
1.60816e-08
4.63003e-10
9.1908e-10
5.21508e-09
6.65945e-09
8.22284e-08
1.62252e-07
2.37808e-08
2.77731e-09
7.67919e-09
7.13342e-09
5.0106e-09
2.90886e-09
1.66238e-09
8.61404e-10
8.97701e-10
7.22366e-10
9.43789e-10
5.69341e-10
2.39948e-08
2.93681e-08
3.79245e-08
3.55411e-08
3.54746e-08
3.73715e-08
3.86869e-08
3.74994e-08
3.81897e-08
3.74409e-08
3.47355e-08
4.2573e-08
4.76145e-08
3.32476e-08
3.2974e-08
2.83766e-08
1.63795e-08
9.60806e-09
2.97937e-08
1.9994e-08
1.53595e-08
6.31261e-09
6.84402e-09
1.51975e-08
1.66443e-08
1.83416e-08
3.21189e-09
1.51899e-07
1.494e-07
6.09224e-08
8.26315e-09
2.4265e-10
4.10932e-10
1.31509e-09
1.85929e-09
1.65146e-09
1.46282e-09
1.10285e-09
1.04784e-09
6.64392e-10
2.5345e-08
2.8396e-08
3.20748e-08
3.20423e-08
3.04564e-08
3.14762e-08
3.10753e-08
3.00004e-08
3.41504e-08
3.55155e-08
3.08284e-08
2.78578e-08
3.89503e-08
3.11443e-08
2.15113e-08
2.89469e-08
3.16201e-08
2.10646e-08
1.5827e-08
1.62619e-08
1.3525e-08
1.7909e-08
2.56846e-10
5.65439e-10
1.20564e-08
1.08731e-10
8.02726e-11
9.7301e-10
3.74188e-09
6.97216e-09
8.40315e-09
7.72148e-09
5.93657e-09
4.13714e-09
2.81489e-09
1.85766e-09
1.47371e-09
1.13134e-09
9.15325e-10
5.48961e-10
2.18034e-08
2.43621e-08
2.62407e-08
2.76683e-08
2.64788e-08
2.61124e-08
2.64886e-08
2.87307e-08
2.48221e-08
2.86474e-08
3.18145e-08
2.81668e-08
2.12717e-08
2.88659e-08
3.06504e-08
1.78088e-08
2.10824e-08
1.87985e-08
2.06873e-08
9.58134e-09
5.72823e-09
1.68153e-08
5.5504e-09
7.19315e-10
4.47395e-09
5.48453e-08
9.40223e-08
4.4006e-08
3.04303e-09
1.30215e-09
2.86164e-09
3.62404e-09
3.84774e-09
2.9063e-09
2.41674e-09
2.03639e-09
1.6525e-09
1.28368e-09
1.10195e-09
6.42042e-10
2.09796e-08
2.17609e-08
2.31213e-08
2.27151e-08
2.30237e-08
2.36443e-08
2.20976e-08
2.30944e-08
2.47707e-08
2.30887e-08
2.43567e-08
2.53243e-08
2.45368e-08
1.84074e-08
2.42653e-08
2.05128e-08
1.8202e-08
1.51795e-08
2.07349e-08
1.80973e-08
1.02065e-08
9.87618e-09
1.05779e-08
1.19688e-08
1.29527e-08
1.06042e-08
7.18969e-09
5.56092e-09
6.04086e-09
6.69653e-09
6.45612e-09
5.60889e-09
4.58125e-09
3.51568e-09
2.68191e-09
1.93195e-09
1.52675e-09
1.09832e-09
1.04458e-09
5.0228e-10
1.84606e-08
1.91546e-08
1.93323e-08
2.00931e-08
1.92935e-08
1.90922e-08
2.06842e-08
1.97265e-08
1.96538e-08
2.2412e-08
2.1298e-08
1.97151e-08
2.3555e-08
2.21586e-08
1.81107e-08
1.91836e-08
2.21957e-08
1.89003e-08
1.54364e-08
1.65135e-08
1.78522e-08
1.66095e-08
1.28521e-08
8.09081e-09
4.86387e-09
6.02554e-09
8.45885e-09
9.58534e-09
9.2649e-09
7.96345e-09
6.35593e-09
4.85395e-09
3.64776e-09
2.83158e-09
2.22255e-09
1.86653e-09
1.48144e-09
1.15673e-09
9.57762e-10
6.11576e-10
1.71081e-08
1.70405e-08
1.70145e-08
1.68608e-08
1.68428e-08
1.67999e-08
1.61807e-08
1.71501e-08
1.7579e-08
1.68601e-08
1.86755e-08
1.9187e-08
1.70092e-08
1.83237e-08
2.01788e-08
1.78558e-08
1.55904e-08
1.69905e-08
1.82498e-08
1.63897e-08
1.27111e-08
1.05906e-08
1.12618e-08
1.16664e-08
1.09525e-08
9.8141e-09
8.45166e-09
6.97088e-09
5.8741e-09
5.09558e-09
4.53709e-09
3.89334e-09
3.2966e-09
2.61906e-09
2.09087e-09
1.52935e-09
1.20423e-09
8.36727e-10
7.50173e-10
4.84061e-10
1.52988e-08
1.51251e-08
1.47237e-08
1.45779e-08
1.41973e-08
1.40736e-08
1.43413e-08
1.40893e-08
1.44354e-08
1.54049e-08
1.52087e-08
1.56316e-08
1.68595e-08
1.6428e-08
1.5767e-08
1.67928e-08
1.73758e-08
1.61219e-08
1.4926e-08
1.52485e-08
1.52732e-08
1.39293e-08
1.1949e-08
9.79929e-09
8.14488e-09
7.60509e-09
7.76892e-09
7.70821e-09
7.19216e-09
6.28019e-09
5.21917e-09
4.13651e-09
3.17171e-09
2.38494e-09
1.74846e-09
1.28543e-09
9.32846e-10
7.59832e-10
6.77292e-10
6.02147e-10
1.39973e-08
1.35246e-08
1.29308e-08
1.2509e-08
1.21471e-08
1.19363e-08
1.17577e-08
1.19957e-08
1.2244e-08
1.25292e-08
1.33862e-08
1.37068e-08
1.36902e-08
1.45043e-08
1.52837e-08
1.48962e-08
1.46429e-08
1.50214e-08
1.50635e-08
1.41644e-08
1.27191e-08
1.13552e-08
1.06012e-08
1.01979e-08
9.55965e-09
8.57107e-09
7.55088e-09
6.36656e-09
5.26526e-09
4.23818e-09
3.46855e-09
2.72363e-09
2.18802e-09
1.63763e-09
1.27369e-09
9.38612e-10
8.13764e-10
6.10536e-10
5.90761e-10
5.18267e-10
1.28065e-08
1.21634e-08
1.14507e-08
1.09088e-08
1.0447e-08
1.02477e-08
1.0235e-08
1.02911e-08
1.06815e-08
1.1205e-08
1.15225e-08
1.19577e-08
1.24345e-08
1.23881e-08
1.2204e-08
1.22628e-08
1.20334e-08
1.12887e-08
1.02508e-08
9.49065e-09
9.04937e-09
8.41945e-09
7.61233e-09
6.64682e-09
5.74708e-09
4.95215e-09
4.52192e-09
4.13407e-09
3.72967e-09
3.13688e-09
2.54583e-09
1.92488e-09
1.45057e-09
9.89519e-10
7.22407e-10
5.0775e-10
4.51606e-10
3.40371e-10
3.62503e-10
2.80275e-10
1.17537e-08
1.10079e-08
1.02295e-08
9.57118e-09
9.07157e-09
8.80851e-09
8.71461e-09
8.69214e-09
8.58436e-09
8.28518e-09
7.68673e-09
6.40795e-09
4.61373e-09
3.0152e-09
1.76069e-09
7.81445e-10
2.46702e-10
7.23584e-11
2.47573e-11
9.10186e-12
5.74779e-12
4.05245e-12
2.65698e-12
4.24686e-12
1.58059e-11
3.68504e-11
6.18417e-11
6.16847e-11
4.62407e-11
2.21463e-11
9.41058e-12
3.18874e-12
3.12121e-12
2.46787e-12
3.22696e-12
2.09272e-12
2.74679e-12
1.97005e-12
2.67546e-12
2.54106e-12
2.56109e-09
2.11148e-09
1.88678e-09
1.79375e-09
1.73066e-09
1.76225e-09
1.7623e-09
1.59148e-09
1.35189e-09
1.04243e-09
6.17277e-10
2.64161e-10
7.61626e-11
7.03456e-12
1.98985e-12
4.32769e-11
1.24101e-10
1.8348e-10
2.09839e-10
1.96919e-10
1.45583e-10
8.42454e-11
3.53856e-11
1.01008e-11
1.76162e-12
2.19293e-13
3.64549e-14
3.65971e-14
4.82437e-14
1.35913e-13
2.72727e-13
4.88844e-13
6.70194e-13
7.79525e-13
8.63269e-13
7.43398e-13
7.21954e-13
4.69127e-13
4.5151e-13
1.78501e-13
2.02105e-11
1.72443e-11
1.95474e-11
2.42124e-11
2.83619e-11
3.37155e-11
3.8604e-11
3.84841e-11
3.31064e-11
2.41793e-11
1.39939e-11
5.44417e-12
7.41885e-13
5.97609e-14
1.55303e-12
6.67415e-12
1.49886e-11
2.29575e-11
2.52166e-11
2.00164e-11
1.19511e-11
5.79151e-12
2.27506e-12
6.67045e-13
1.21704e-13
5.37238e-15
1.3005e-15
2.49617e-14
6.5612e-14
7.82631e-14
8.41081e-14
6.20642e-14
5.29927e-14
3.33133e-14
2.81777e-14
1.67739e-14
1.39556e-14
8.18048e-15
5.71348e-15
3.28129e-15
2.79581e-14
1.79222e-14
3.3307e-14
6.04166e-14
9.97304e-14
1.51565e-13
1.86211e-13
1.92368e-13
1.82208e-13
1.3485e-13
5.53045e-14
6.9329e-15
3.56371e-15
6.31977e-14
2.81969e-13
5.842e-13
7.16026e-13
5.81378e-13
3.18097e-13
1.14089e-13
2.58694e-14
2.4318e-15
3.03936e-16
2.86057e-15
7.67053e-15
9.58683e-15
6.96758e-15
3.94067e-15
2.34338e-15
1.74709e-15
1.30737e-15
1.23026e-15
9.29388e-16
8.3774e-16
5.66658e-16
4.19655e-16
2.75486e-16
1.33756e-16
1.36228e-16
6.87252e-17
)
;

boundaryField
{
    inlet
    {
        type            calculated;
        value           nonuniform List<scalar> 
20
(
1.51115e-34
7.01831e-33
8.95543e-33
1.32816e-33
2.45135e-33
1.73599e-33
2.11689e-33
2.18222e-33
2.20719e-33
2.05221e-33
1.40406e-33
3.89668e-34
1.25126e-33
1.04928e-33
4.37598e-34
8.98146e-34
2.67624e-34
6.16692e-33
5.39985e-33
1.44121e-34
)
;
    }
    outlet
    {
        type            calculated;
        value           nonuniform List<scalar> 
27
(
1.83182e-33
1.08728e-33
1.04108e-33
1.03123e-33
9.26789e-36
1.06391e-33
2.97582e-38
2.96449e-34
3.81448e-35
1.23994e-34
8.27659e-34
1.59586e-33
1.82036e-33
2.51549e-33
2.5453e-33
1.39022e-33
2.9658e-35
2.03674e-37
1.69522e-38
1.85083e-38
2.59987e-38
3.02658e-38
4.96309e-38
2.88369e-35
1.68875e-33
2.36433e-33
1.9157e-33
)
;
    }
    lowerWall
    {
        type            fixedValue;
        value           uniform 0;
    }
    upperWall
    {
        type            fixedValue;
        value           uniform 0;
    }
    defaultFaces
    {
        type            empty;
    }
}


// ************************************************************************* //
