/*--------------------------------*- C++ -*----------------------------------*\
| =========                 |                                                 |
| \\      /  F ield         | OpenFOAM: The Open Source CFD Toolbox           |
|  \\    /   O peration     | Version:  2112                                  |
|   \\  /    A nd           | Website:  www.openfoam.com                      |
|    \\/     M anipulation  |                                                 |
\*---------------------------------------------------------------------------*/
FoamFile
{
    version     2.0;
    format      ascii;
    arch        "LSB;label=32;scalar=64";
    class       volScalarField;
    location    "0.27";
    object      p;
}
// * * * * * * * * * * * * * * * * * * * * * * * * * * * * * * * * * * * * * //

dimensions      [0 2 -2 0 0 0 0];

internalField   nonuniform List<scalar> 
1880
(
0.00320669
0.0030706
0.00297655
0.00293058
0.00290176
0.00288103
0.0028605
0.00284303
0.00282413
0.00281105
0.00280169
0.00279311
0.00278732
0.0027859
0.00278627
0.00279365
0.00280271
0.00282116
0.00284197
0.00286863
0.00290569
0.00295593
0.00302331
0.00311277
0.00322695
0.00335375
0.00351753
0.00369495
0.00386704
0.0040769
0.00302546
0.00299437
0.00295148
0.00291694
0.00288668
0.00286524
0.00284686
0.00283294
0.0028154
0.00280213
0.00279433
0.00278317
0.00277726
0.0027727
0.00277679
0.00278007
0.00278907
0.00280435
0.00282269
0.00284758
0.00287689
0.00293145
0.00298267
0.00308635
0.00316084
0.00331367
0.00342569
0.00359484
0.00376135
0.00390053
0.00299199
0.00297233
0.00294056
0.00291023
0.00288166
0.002858
0.00284025
0.00282585
0.00280928
0.00279496
0.00278745
0.00277495
0.00276552
0.00276205
0.00276452
0.00276569
0.0027679
0.00277972
0.00279735
0.00281832
0.00284812
0.00288721
0.00293781
0.00300537
0.00307817
0.00317159
0.00326211
0.00336793
0.00344619
0.00351104
0.00293369
0.0029241
0.00290594
0.0028862
0.00286388
0.00284219
0.002826
0.00281169
0.00279553
0.0027808
0.00277455
0.00276103
0.00274971
0.00274361
0.00274463
0.00274339
0.00274055
0.00275061
0.0027597
0.00277964
0.00279586
0.00282723
0.00286286
0.00291044
0.00296224
0.00301879
0.00308063
0.003122
0.00316685
0.00317709
0.0029047
0.00289877
0.00288631
0.00287129
0.00285282
0.00283191
0.00281659
0.0028014
0.00278507
0.00276885
0.00276258
0.00274765
0.00273422
0.00272551
0.00272352
0.00271918
0.00271296
0.00271629
0.0027209
0.0027329
0.00274155
0.00276087
0.00278193
0.00281039
0.00283857
0.00286707
0.00289038
0.00289963
0.00289706
0.00286236
0.00287731
0.00287271
0.00286287
0.00285115
0.00283591
0.00281688
0.00280263
0.00278779
0.00277082
0.00275377
0.00274631
0.00273124
0.00271503
0.00270425
0.0026985
0.00269182
0.00268077
0.00267797
0.00267781
0.00267987
0.00268256
0.00268557
0.00269551
0.00270345
0.00271111
0.00271356
0.0027095
0.00268609
0.00264982
0.00258287
0.00285664
0.00285302
0.002845
0.00283531
0.0028223
0.00280437
0.00279084
0.00277566
0.00275811
0.00273959
0.0027308
0.00271436
0.00269591
0.00268243
0.00267301
0.00266291
0.00264694
0.00263853
0.00263165
0.00262604
0.00261893
0.00261055
0.00260689
0.00259811
0.00258733
0.00256826
0.00253899
0.0024921
0.00242781
0.00233698
0.00284003
0.00283685
0.0028296
0.00282089
0.00280884
0.00279162
0.00277811
0.00276285
0.00274423
0.00272473
0.00271383
0.00269645
0.00267513
0.00265906
0.00264616
0.00263186
0.00261192
0.00259608
0.0025847
0.00256945
0.00255441
0.00253503
0.00251816
0.00249615
0.00246807
0.00243017
0.00238242
0.00231418
0.00223035
0.00212077
0.00282709
0.00282406
0.00281714
0.00280885
0.00279722
0.00278019
0.00276643
0.0027507
0.00273095
0.00271026
0.00269732
0.00267846
0.00265426
0.00263561
0.00261897
0.00260092
0.00257593
0.0025543
0.00253702
0.00251389
0.00249059
0.0024611
0.00243286
0.00239851
0.00235553
0.00230299
0.00223848
0.00215463
0.00205529
0.00193223
0.00281759
0.00281453
0.00280758
0.00279927
0.00278745
0.00277021
0.00275572
0.00273933
0.00271816
0.0026962
0.00268111
0.00266048
0.00263358
0.00261179
0.00259217
0.00256946
0.00254048
0.00251258
0.00248988
0.00245985
0.00242794
0.00239057
0.00235114
0.0023063
0.00225162
0.00218541
0.00210882
0.00201281
0.00190133
0.001769
0.00281151
0.00280825
0.00280098
0.00279225
0.00277978
0.00276184
0.00274626
0.0027289
0.00270612
0.00268275
0.00266546
0.00264301
0.00261323
0.00258854
0.00256564
0.00253893
0.00250558
0.00247233
0.00244411
0.00240783
0.0023683
0.0023234
0.00227451
0.00222073
0.00215585
0.00207935
0.00199291
0.00188749
0.00176715
0.00162856
0.00280892
0.00280534
0.0027975
0.00278801
0.00277447
0.00275545
0.00273847
0.00271989
0.00269539
0.00267047
0.0026511
0.00262649
0.00259412
0.00256622
0.00254049
0.0025097
0.00247231
0.00243419
0.00240046
0.00235903
0.0023122
0.0022607
0.00220391
0.00214193
0.00206947
0.0019845
0.00189019
0.00177841
0.00165142
0.00150854
0.00281011
0.00280591
0.00279709
0.00278626
0.00277108
0.0027504
0.00273159
0.0027115
0.0026852
0.0026588
0.00263737
0.00261068
0.00257565
0.00254481
0.00251625
0.00248184
0.00244052
0.00239806
0.00235928
0.00231311
0.00226006
0.00220262
0.00213921
0.00207061
0.00199184
0.00190042
0.00180003
0.00168364
0.00155215
0.00140635
0.00281589
0.00281107
0.00280111
0.00278872
0.00277152
0.00274894
0.00272817
0.00270639
0.00267803
0.00264991
0.00262639
0.00259718
0.00255949
0.00252569
0.00249444
0.00245657
0.00241139
0.00236502
0.00232147
0.00227103
0.0022126
0.00214979
0.00208122
0.00200692
0.00192329
0.00182723
0.00172212
0.00160278
0.00146844
0.00132092
0.00282609
0.00281973
0.00280739
0.002792
0.00277159
0.00274633
0.00272323
0.00269953
0.0026695
0.00263997
0.00261458
0.00258299
0.00254296
0.00250696
0.00247351
0.00243264
0.00238402
0.00233434
0.00228667
0.00223236
0.00216934
0.00210188
0.00202903
0.00195028
0.00186277
0.0017634
0.00165499
0.00153377
0.00139809
0.00124963
0.00284537
0.00283743
0.00282212
0.00280272
0.00277823
0.00274988
0.00272422
0.0026985
0.00266683
0.00263592
0.00260827
0.00257393
0.00253163
0.00249327
0.00245715
0.00241281
0.0023607
0.00230791
0.00225645
0.00219844
0.00213146
0.00205991
0.00198364
0.00190137
0.00181092
0.00170957
0.00159911
0.00147703
0.00134114
0.00119272
0.00286613
0.00285392
0.0028329
0.00280781
0.00277912
0.00274829
0.00272091
0.00269373
0.00266083
0.00262846
0.00259849
0.00256157
0.00251761
0.00247752
0.00243905
0.00239198
0.00233757
0.00228312
0.00222849
0.00216673
0.00209616
0.00202116
0.0019422
0.00185759
0.0017654
0.00166338
0.00155239
0.00143044
0.0012953
0.00114727
0.00291954
0.00289687
0.00286205
0.00282539
0.00278987
0.00275578
0.00272634
0.00269724
0.00266275
0.00262839
0.00259534
0.00255598
0.00251131
0.0024701
0.00242894
0.00237888
0.00232248
0.0022661
0.00220817
0.00214259
0.00206862
0.00199055
0.00190899
0.00182243
0.00172914
0.00162728
0.00151657
0.0013954
0.00126183
0.00111547
0.00294845
0.00291356
0.00286832
0.00282648
0.00278915
0.00275527
0.00272522
0.00269459
0.00265861
0.00262288
0.00258794
0.00254736
0.00250227
0.00245871
0.00241402
0.00236228
0.00230603
0.0022483
0.00218561
0.00211471
0.00203719
0.00195649
0.00187393
0.00178784
0.00169586
0.00159675
0.00148841
0.00136939
0.00123791
0.00109269
0.00312811
0.00298799
0.00289045
0.00283715
0.00280157
0.00276784
0.00273459
0.00269995
0.00266184
0.00262467
0.00258779
0.00254699
0.00250301
0.00245827
0.00241048
0.00235742
0.00230117
0.00224262
0.00217843
0.00210682
0.0020288
0.00194668
0.00186215
0.00177414
0.00168157
0.00158297
0.0014755
0.00135802
0.00122885
0.00108683
0.00418575
0.00388207
0.00350469
0.00290522
0.00236321
0.00160522
0.000840879
-0.00013454
-0.00136342
-0.00297154
0.00393683
0.00360385
0.00310092
0.00243332
0.00182601
0.00108782
0.000328843
-0.000612321
-0.00176002
-0.00312847
0.00352902
0.00315496
0.00267718
0.00220892
0.00163014
0.00103572
0.00020025
-0.000643689
-0.00177223
-0.00263123
0.00314527
0.00281768
0.00240928
0.00185623
0.00130365
0.000655906
-6.12448e-05
-0.000842869
-0.00177054
-0.00266062
0.0027971
0.0024828
0.00205566
0.00160357
0.00109381
0.000542645
-0.000147889
-0.000881961
-0.00170487
-0.0024519
0.00249418
0.00219071
0.00182667
0.00136204
0.0008883
0.000333041
-0.000290278
-0.000968154
-0.00165956
-0.00234685
0.00222529
0.00194553
0.0015802
0.00116117
0.000720888
0.000224463
-0.000347624
-0.000964879
-0.00157268
-0.00217963
0.00199357
0.00172524
0.00139229
0.000995056
0.000580579
0.000112422
-0.000410551
-0.000978946
-0.00151174
-0.00205026
0.00179131
0.00154192
0.00122197
0.000853713
0.0004666
3.67177e-05
-0.000441568
-0.000950512
-0.00142803
-0.00190186
0.00161957
0.00138257
0.00108318
0.000738502
0.000375679
-2.49078e-05
-0.000462898
-0.000925127
-0.00135615
-0.00178088
0.00147244
0.00124802
0.000965266
0.000643871
0.000303647
-6.81841e-05
-0.000470009
-0.000885603
-0.00127759
-0.00165885
0.00134885
0.00113438
0.000869193
0.000567378
0.000247824
-9.8451e-05
-0.000467822
-0.000846303
-0.00120582
-0.00155434
0.00124434
0.00103888
0.000789009
0.000506429
0.000205519
-0.000118115
-0.000458676
-0.00080411
-0.00113569
-0.00145594
0.00115866
0.000960681
0.000725199
0.000459173
0.000175069
-0.000128107
-0.000443893
-0.000763018
-0.00107156
-0.00136983
0.001087
0.000895583
0.000672522
0.000421955
0.00015342
-0.00013178
-0.000426651
-0.000723738
-0.00101275
-0.00129231
0.00103143
0.000845678
0.00063321
0.000395914
0.000141043
-0.000128615
-0.000406477
-0.000686456
-0.000960026
-0.00122498
0.00098589
0.000804432
0.000600946
0.000375479
0.000133259
-0.000122641
-0.000386395
-0.00065261
-0.000913717
-0.00116694
0.000956151
0.000778701
0.000581885
0.000365377
0.000133035
-0.000112294
-0.000365476
-0.00062193
-0.000874374
-0.00111899
0.000933651
0.000758846
0.000567581
0.000359271
0.00013598
-0.000100377
-0.000344543
-0.000592988
-0.000839558
-0.00107814
0.000931099
0.000758445
0.000569071
0.000363326
0.0001432
-8.95781e-05
-0.00033009
-0.000575456
-0.00081957
-0.00105862
-0.00567683
-0.00584687
-0.00594496
-0.00636058
-0.00802074
-0.0105266
-0.0128384
-0.013799
-0.0131439
-0.0110053
-0.00795813
-0.00470465
-0.00177333
0.000439375
0.00190923
0.00267359
0.00290663
0.00283055
0.0025919
0.0022924
0.00198817
0.00170651
0.001459
0.00124664
0.00106322
0.000904534
0.00076737
0.000649026
0.000547191
0.000460004
0.000385362
0.000321447
0.000266247
0.000218188
0.000175683
0.000137655
0.000103051
7.1152e-05
4.14464e-05
1.33041e-05
-0.00579463
-0.00597365
-0.00600895
-0.00666749
-0.00873087
-0.0114353
-0.0137955
-0.0147707
-0.013984
-0.011729
-0.00854097
-0.00519196
-0.00216446
0.000149262
0.00167601
0.00248668
0.00276616
0.00272398
0.0025113
0.00223076
0.00193954
0.0016673
0.0014279
0.00122122
0.0010432
0.000888678
0.000754979
0.000639733
0.000540645
0.000455758
0.000382929
0.000320289
0.000265946
0.000218362
0.000176137
0.000138189
0.000103613
7.16486e-05
4.18272e-05
1.35342e-05
-0.00547784
-0.00574433
-0.0062758
-0.00753728
-0.00995122
-0.0127368
-0.0152714
-0.0163208
-0.0154464
-0.0129419
-0.00956961
-0.00606404
-0.00288752
-0.000439726
0.0011879
0.00208825
0.00244568
0.00246428
0.00230464
0.00207
0.00181533
0.00157127
0.00135318
0.00116485
0.00100252
0.000861537
0.000738463
0.000630843
0.00053653
0.000454476
0.000383183
0.00032129
0.000267233
0.000219665
0.000177392
0.000139379
0.000104713
7.26303e-05
4.25858e-05
1.39661e-05
-0.0052937
-0.00541414
-0.00587823
-0.00791399
-0.010907
-0.0140409
-0.0167244
-0.0178365
-0.0168395
-0.0141063
-0.0105141
-0.00692299
-0.00367825
-0.0011458
0.000565804
0.00155639
0.00201079
0.00210899
0.00201438
0.00183977
0.00163849
0.00143807
0.00125566
0.00109442
0.000950578
0.000822399
0.000708515
0.000608116
0.000520063
0.000442739
0.000374958
0.00031553
0.000263349
0.000217181
0.00017592
0.000138598
0.000104429
7.26871e-05
4.27836e-05
1.41394e-05
-0.00502118
-0.00539135
-0.0059266
-0.00826736
-0.0114007
-0.0147053
-0.0175057
-0.0186061
-0.0176488
-0.0148838
-0.0112381
-0.00756856
-0.00430642
-0.00178745
-5.91482e-05
0.000965158
0.00150276
0.00170146
0.00169291
0.00158454
0.00143481
0.00127735
0.00113031
0.00099889
0.000880012
0.000770671
0.000670454
0.000579863
0.000498928
0.000427102
0.000363461
0.000307098
0.000256979
0.00021232
0.000172195
0.000135786
0.000102386
7.13005e-05
4.20019e-05
1.38881e-05
-0.00506097
-0.00523101
-0.00558464
-0.00794085
-0.011248
-0.0148401
-0.0176828
-0.0187995
-0.0178097
-0.0152177
-0.0116869
-0.00803154
-0.00477011
-0.00225679
-0.000542847
0.000460668
0.00101079
0.0012704
0.00134975
0.00132518
0.00124123
0.00112781
0.00101279
0.000907549
0.000809432
0.000715936
0.00062793
0.000546736
0.000472967
0.000406675
0.000347499
0.00029481
0.000247896
0.000205942
0.000168016
0.000133117
0.000100894
7.06654e-05
4.20004e-05
1.39596e-05
-0.0051872
-0.00550897
-0.00522176
-0.00757586
-0.0104802
-0.0138202
-0.0163873
-0.0174926
-0.0169252
-0.0147903
-0.0116416
-0.0081818
-0.00503706
-0.00261905
-0.000962902
4.75079e-05
0.000626954
0.000925953
0.00104895
0.0010766
0.00104825
0.000981486
0.000898027
0.000815364
0.000735874
0.000657742
0.000581355
0.000508929
0.000442364
0.000382175
0.000328009
0.000279313
0.00023524
0.0001951
0.000158479
0.000125273
9.4847e-05
6.58031e-05
3.91538e-05
1.28908e-05
-0.00520115
-0.00363004
-0.00494537
-0.00703946
-0.00945738
-0.0123262
-0.0145682
-0.0156542
-0.0154006
-0.0137769
-0.0110387
-0.00789413
-0.0050151
-0.00280979
-0.00134084
-0.000404691
0.000214566
0.000601249
0.000796062
0.000865827
0.000868898
0.000834719
0.000781586
0.000720937
0.00065691
0.00059208
0.000528069
0.00046613
0.000407523
0.000353472
0.000304692
0.000260802
0.000221291
0.000185813
0.000153553
0.000123495
9.47175e-05
6.70667e-05
3.95518e-05
1.3142e-05
-0.00418891
-0.00467909
-0.0056642
-0.00705838
-0.00879233
-0.0111631
-0.0129942
-0.013809
-0.0136263
-0.0123181
-0.0099173
-0.00717204
-0.00473354
-0.00283819
-0.00154244
-0.000710042
-0.000137234
0.000261749
0.000512784
0.000645109
0.000688857
0.000681093
0.000651156
0.000613591
0.000571554
0.00052252
0.000469079
0.000417094
0.000368153
0.000322444
0.000279891
0.000240427
0.00020412
0.000170096
0.000138191
0.000108596
8.11367e-05
5.67409e-05
3.31287e-05
1.10601e-05
-0.00370497
-0.00432554
-0.00522649
-0.0064974
-0.00795949
-0.00972485
-0.0110609
-0.0116534
-0.0114844
-0.0103731
-0.00839245
-0.00621483
-0.0043366
-0.00285179
-0.00172652
-0.000923648
-0.000360431
2.41493e-05
0.000275397
0.000428527
0.000503499
0.000522623
0.000515481
0.000494336
0.000460098
0.000422843
0.000389553
0.00035641
0.00032078
0.00028376
0.000248246
0.000215736
0.000185332
0.000157715
0.000132315
0.000108088
8.43248e-05
5.97688e-05
3.57649e-05
1.18464e-05
-0.00344746
-0.00411817
-0.00495065
-0.00600831
-0.0071227
-0.0083313
-0.00924745
-0.00964676
-0.00944735
-0.0085431
-0.00705463
-0.00542242
-0.0039708
-0.00277914
-0.00182797
-0.00110604
-0.000573231
-0.000192972
6.38145e-05
0.000226972
0.000319688
0.00036602
0.000385859
0.000383792
0.000366008
0.000342662
0.000317986
0.000292484
0.000267439
0.000243589
0.000219331
0.000193118
0.00016603
0.00013918
0.000113237
8.91321e-05
6.68908e-05
4.66818e-05
2.73782e-05
9.10505e-06
-0.00313733
-0.00379087
-0.00452018
-0.00536639
-0.00621215
-0.00706836
-0.00774946
-0.00803869
-0.00784188
-0.0071289
-0.00605096
-0.00484307
-0.00370065
-0.00270275
-0.0018753
-0.00124029
-0.000769353
-0.000413489
-0.000149866
2.89475e-05
0.000139025
0.000205509
0.000249433
0.000274214
0.000273595
0.000255082
0.000236658
0.000224758
0.000213609
0.000198465
0.000180611
0.000162259
0.00014382
0.000126098
0.000108649
9.08156e-05
7.21402e-05
5.09439e-05
3.05797e-05
1.01495e-05
-0.00290176
-0.00347965
-0.00411226
-0.0048119
-0.00549056
-0.00616081
-0.00665456
-0.00682978
-0.00667135
-0.00612836
-0.00528975
-0.00435619
-0.00345045
-0.00262766
-0.0019129
-0.00134057
-0.000907068
-0.000569802
-0.000306946
-0.000112307
1.81654e-05
9.57918e-05
0.000145426
0.000179129
0.000195173
0.000203344
0.000210117
0.000208905
0.000196596
0.000177736
0.000159907
0.000141007
0.00012219
0.000102982
8.39751e-05
6.57296e-05
4.88226e-05
3.48619e-05
2.06215e-05
6.87979e-06
-0.00267555
-0.00317721
-0.00372875
-0.00431984
-0.00487665
-0.00538318
-0.0057484
-0.00587325
-0.00573442
-0.00532269
-0.0046764
-0.00394281
-0.00321733
-0.00253771
-0.00192998
-0.00141796
-0.00101267
-0.000694717
-0.000449604
-0.00026582
-0.000127475
-2.70774e-05
3.95609e-05
7.92497e-05
0.000102245
0.000110947
0.000110316
0.000110117
0.000116393
0.000124661
0.00012572
0.000119954
0.000109725
9.74241e-05
8.43542e-05
7.0482e-05
5.5822e-05
4.02217e-05
2.44646e-05
8.18622e-06
-0.00247726
-0.00291207
-0.0033956
-0.00390109
-0.00435927
-0.00476096
-0.00504843
-0.00514185
-0.00502466
-0.00470188
-0.00419777
-0.00360865
-0.00301496
-0.00244682
-0.00192766
-0.00148008
-0.00111398
-0.00081544
-0.00057387
-0.000387011
-0.000246832
-0.000141897
-6.35632e-05
5.51994e-07
4.29587e-05
5.84953e-05
6.43834e-05
7.14205e-05
8.00646e-05
8.54482e-05
8.47971e-05
8.02696e-05
7.30575e-05
6.39369e-05
5.37355e-05
4.33253e-05
3.31011e-05
2.35953e-05
1.39453e-05
4.63036e-06
-0.00229478
-0.00268085
-0.00310004
-0.00353127
-0.00391778
-0.00424108
-0.00446469
-0.00453861
-0.00444388
-0.00419314
-0.0038039
-0.00332833
-0.00283184
-0.00235574
-0.00191359
-0.00151708
-0.00117946
-0.000901694
-0.000673747
-0.000489104
-0.000343649
-0.000234515
-0.00015438
-9.4262e-05
-4.83844e-05
-1.33304e-05
1.71383e-05
4.39943e-05
6.14482e-05
7.101e-05
7.45287e-05
7.39153e-05
7.04842e-05
6.50123e-05
5.80143e-05
4.96098e-05
4.00701e-05
2.93868e-05
1.8165e-05
6.1407e-06
-0.00213333
-0.0024767
-0.00284265
-0.0032156
-0.00354565
-0.00381615
-0.00400063
-0.00405984
-0.00398252
-0.00378074
-0.00347085
-0.00308934
-0.00268207
-0.0022787
-0.00189468
-0.0015448
-0.00124039
-0.00098254
-0.000768772
-0.00059528
-0.000451145
-0.000332253
-0.00023609
-0.000161108
-0.000107899
-6.77126e-05
-3.90843e-05
-1.72195e-05
3.98024e-07
1.38747e-05
2.29303e-05
2.8045e-05
2.98768e-05
2.91305e-05
2.64867e-05
2.26535e-05
1.80311e-05
1.31473e-05
7.80198e-06
2.56566e-06
-0.00198541
-0.00229607
-0.00261817
-0.00294164
-0.00322859
-0.0034568
-0.00360798
-0.00366255
-0.00360522
-0.00344199
-0.00319298
-0.00288533
-0.00254677
-0.00220084
-0.00186841
-0.00156219
-0.0012886
-0.00104848
-0.000840643
-0.000664999
-0.000521968
-0.000406254
-0.000313812
-0.000238708
-0.000174517
-0.000120785
-7.60804e-05
-4.04652e-05
-1.33316e-05
6.25294e-06
1.95575e-05
2.79099e-05
3.24419e-05
3.39253e-05
3.2979e-05
2.99388e-05
2.52762e-05
1.91484e-05
1.2167e-05
4.16194e-06
-0.0018544
-0.00213755
-0.00242465
-0.00270957
-0.00296045
-0.00315905
-0.00329117
-0.00333746
-0.00329361
-0.00316691
-0.00296533
-0.00270901
-0.00242621
-0.00213589
-0.00184835
-0.00157557
-0.00132638
-0.00110428
-0.000912364
-0.000749768
-0.000608494
-0.000485281
-0.000381719
-0.000296651
-0.000227362
-0.000171604
-0.000128095
-9.32659e-05
-6.51325e-05
-4.29514e-05
-2.60807e-05
-1.37054e-05
-5.05437e-06
5.58039e-07
3.7472e-06
5.13882e-06
5.14185e-06
4.31321e-06
2.67203e-06
8.65152e-07
-0.00173698
-0.00199849
-0.00225764
-0.00250985
-0.00273234
-0.00290746
-0.00302262
-0.00306808
-0.00303788
-0.00293484
-0.00277058
-0.00256198
-0.00232565
-0.00207535
-0.00182408
-0.00158369
-0.00136108
-0.00115698
-0.000971624
-0.000807765
-0.000666877
-0.00054646
-0.000443411
-0.000356451
-0.000281169
-0.000216706
-0.000161759
-0.000116254
-7.95298e-05
-5.06971e-05
-2.8689e-05
-1.24486e-05
-9.3104e-07
6.66975e-06
1.10675e-05
1.26877e-05
1.22616e-05
1.00753e-05
6.80074e-06
2.37387e-06
-0.00163397
-0.00187781
-0.0021147
-0.00234159
-0.00254067
-0.00269807
-0.00280283
-0.00284556
-0.00282466
-0.00274441
-0.00261081
-0.0024364
-0.00223672
-0.00202392
-0.00180707
-0.00159423
-0.00139109
-0.00120082
-0.00102693
-0.000872857
-0.000735635
-0.000611487
-0.000501654
-0.000406167
-0.00032534
-0.000257373
-0.000201761
-0.000156353
-0.00011927
-8.92531e-05
-6.52746e-05
-4.63967e-05
-3.192e-05
-2.11409e-05
-1.33569e-05
-7.85391e-06
-4.26469e-06
-1.95563e-06
-8.55286e-07
-2.68458e-07
-0.00154363
-0.00177375
-0.00199325
-0.00219949
-0.00237965
-0.00252236
-0.00261806
-0.00266036
-0.00264843
-0.0025849
-0.0024752
-0.00233065
-0.00216347
-0.00198183
-0.00179204
-0.00160276
-0.00142026
-0.00124612
-0.00108089
-0.000927499
-0.000788
-0.00066276
-0.00055123
-0.000453819
-0.000369008
-0.000295195
-0.000231416
-0.000177192
-0.000132311
-9.5945e-05
-6.69677e-05
-4.46042e-05
-2.75938e-05
-1.50902e-05
-6.40183e-06
-1.60229e-06
1.34967e-06
2.40236e-06
2.17916e-06
8.66708e-07
-0.00146588
-0.00168541
-0.00189127
-0.00208164
-0.00224687
-0.00237751
-0.00246619
-0.0025079
-0.00250232
-0.00245247
-0.00236342
-0.00224374
-0.0021024
-0.00194629
-0.00178249
-0.00161695
-0.00145207
-0.00128899
-0.00113084
-0.000982286
-0.00084481
-0.000717372
-0.000600546
-0.000495878
-0.000404174
-0.000325788
-0.0002596
-0.00020502
-0.000160072
-0.000123221
-9.31751e-05
-6.83034e-05
-4.9094e-05
-3.44531e-05
-2.33639e-05
-1.44697e-05
-8.53286e-06
-4.59213e-06
-2.12848e-06
-7.07724e-07
-0.00140015
-0.00161208
-0.0018075
-0.00198461
-0.00213711
-0.00225796
-0.00234074
-0.00238178
-0.00238159
-0.00234298
-0.00227017
-0.00217083
-0.00205299
-0.00192145
-0.00177992
-0.00163269
-0.00148333
-0.00133322
-0.00118372
-0.00103724
-0.000896777
-0.00076452
-0.00064271
-0.000533644
-0.000437629
-0.000353959
-0.000282006
-0.000220699
-0.0001695
-0.000127536
-9.37658e-05
-6.77587e-05
-4.71477e-05
-3.12569e-05
-1.94377e-05
-1.10769e-05
-5.48078e-06
-2.0714e-06
-3.42755e-07
5.86038e-08
-0.0013465
-0.00155396
-0.00174258
-0.00191005
-0.00205191
-0.00216357
-0.00224069
-0.00228077
-0.00228405
-0.00225339
-0.00219409
-0.00211299
-0.00201556
-0.00190482
-0.00178397
-0.00165549
-0.00152006
-0.00137817
-0.00123208
-0.00108573
-0.000943018
-0.000807194
-0.00068075
-0.000565672
-0.000463357
-0.000374488
-0.000298857
-0.000235694
-0.000183473
-0.000140802
-0.000106301
-7.85558e-05
-5.66111e-05
-3.9575e-05
-2.66023e-05
-1.6917e-05
-1.00039e-05
-5.30828e-06
-2.37984e-06
-6.35769e-07
-0.00130209
-0.00150698
-0.00169129
-0.00185267
-0.00198806
-0.00209281
-0.00216458
-0.00220296
-0.00220821
-0.00218364
-0.00213511
-0.00206813
-0.0019873
-0.00189653
-0.00179643
-0.00168516
-0.00156164
-0.00142677
-0.00128313
-0.00113464
-0.000986201
-0.000842799
-0.000708993
-0.000587593
-0.000480353
-0.000387655
-0.000308749
-0.000242436
-0.00018733
-0.00014225
-0.00010579
-7.68221e-05
-5.40807e-05
-3.65773e-05
-2.34003e-05
-1.38014e-05
-7.16767e-06
-2.88414e-06
-5.88207e-07
1.99083e-07
-0.00128495
-0.00148923
-0.00166989
-0.00182661
-0.00195747
-0.0020586
-0.00212779
-0.00216487
-0.00217074
-0.00214876
-0.00210441
-0.00204336
-0.00197024
-0.00188742
-0.00179453
-0.00168983
-0.00157208
-0.00144136
-0.00129972
-0.00115131
-0.00100179
-0.000857192
-0.000721681
-0.000598251
-0.000488815
-0.000394034
-0.000313366
-0.000245838
-0.000190082
-0.000144715
-0.00010813
-7.9057e-05
-5.61544e-05
-3.84898e-05
-2.50643e-05
-1.5222e-05
-8.26348e-06
-3.68537e-06
-1.09919e-06
7.79016e-08
)
;

boundaryField
{
    inlet
    {
        type            zeroGradient;
    }
    outlet
    {
        type            fixedValue;
        value           uniform 0;
    }
    lowerWall
    {
        type            zeroGradient;
    }
    upperWall
    {
        type            zeroGradient;
    }
    defaultFaces
    {
        type            empty;
    }
}


// ************************************************************************* //
