/*--------------------------------*- C++ -*----------------------------------*\
| =========                 |                                                 |
| \\      /  F ield         | OpenFOAM: The Open Source CFD Toolbox           |
|  \\    /   O peration     | Version:  2112                                  |
|   \\  /    A nd           | Website:  www.openfoam.com                      |
|    \\/     M anipulation  |                                                 |
\*---------------------------------------------------------------------------*/
FoamFile
{
    version     2.0;
    format      ascii;
    arch        "LSB;label=32;scalar=64";
    class       surfaceScalarField;
    location    "0.27";
    object      phi;
}
// * * * * * * * * * * * * * * * * * * * * * * * * * * * * * * * * * * * * * //

dimensions      [0 3 -1 0 0 0 0];

oriented        oriented;

internalField   nonuniform List<scalar> 
3653
(
9.92548e-07
7.45197e-09
9.79287e-07
1.32609e-08
9.63918e-07
1.53688e-08
9.4856e-07
1.53581e-08
9.31797e-07
1.67631e-08
9.15752e-07
1.60448e-08
8.97396e-07
1.83562e-08
8.80342e-07
1.70542e-08
8.61023e-07
1.93191e-08
8.43819e-07
1.72036e-08
8.24421e-07
1.93984e-08
8.06745e-07
1.76754e-08
7.86374e-07
2.03715e-08
7.67255e-07
1.91187e-08
7.46335e-07
2.09198e-08
7.27939e-07
1.83963e-08
7.05859e-07
2.20798e-08
6.85388e-07
2.04711e-08
6.60874e-07
2.45138e-08
6.37573e-07
2.33019e-08
6.14237e-07
2.33356e-08
5.89394e-07
2.4843e-08
5.68734e-07
2.06595e-08
5.41591e-07
2.71433e-08
5.19098e-07
2.24928e-08
4.8325e-07
3.5848e-08
4.5006e-07
3.31903e-08
3.97662e-07
5.23983e-08
3.36693e-07
6.09689e-08
8.70428e-08
2.4965e-07
1.00299e-06
4.46648e-09
1.00645e-06
9.79524e-09
1.00885e-06
1.29673e-08
1.01039e-06
1.3816e-08
1.01111e-06
1.60432e-08
1.01186e-06
1.52993e-08
1.01142e-06
1.87964e-08
1.01169e-06
1.6789e-08
1.00961e-06
2.13904e-08
1.00873e-06
1.80902e-08
1.00535e-06
2.27708e-08
1.00341e-06
1.96198e-08
9.99856e-07
2.39261e-08
9.96035e-07
2.29395e-08
9.90581e-07
2.63743e-08
9.85798e-07
2.31794e-08
9.77155e-07
3.07226e-08
9.74123e-07
2.35029e-08
9.61584e-07
3.70525e-08
9.57703e-07
2.71825e-08
9.42243e-07
3.87964e-08
9.32981e-07
3.4105e-08
9.14725e-07
3.89153e-08
9.01703e-07
4.01653e-08
8.74403e-07
4.97929e-08
8.61075e-07
4.91759e-08
8.18757e-07
7.55081e-08
7.94389e-07
7.67665e-08
7.39164e-07
1.16194e-07
1.32598e-07
6.93609e-07
1.00179e-06
2.67778e-09
1.00486e-06
6.72863e-09
1.00771e-06
1.01087e-08
1.01e-06
1.1532e-08
1.01199e-06
1.40541e-08
1.01382e-06
1.34656e-08
1.01543e-06
1.7188e-08
1.01751e-06
1.47052e-08
1.01837e-06
2.05361e-08
1.02043e-06
1.60317e-08
1.01987e-06
2.33277e-08
1.02166e-06
1.78337e-08
1.02071e-06
2.48711e-08
1.02211e-06
2.15445e-08
1.021e-06
2.74825e-08
1.01998e-06
2.41964e-08
1.01859e-06
3.211e-08
1.01602e-06
2.60793e-08
1.01423e-06
3.8839e-08
1.00999e-06
3.14215e-08
1.00688e-06
4.19023e-08
9.98615e-07
4.23743e-08
9.92349e-07
4.51817e-08
9.79521e-07
5.29929e-08
9.64348e-07
6.49664e-08
9.54101e-07
5.94225e-08
9.25623e-07
1.03986e-07
9.13408e-07
8.8982e-08
8.90476e-07
1.39126e-07
1.57968e-07
8.65106e-07
1.00082e-06
1.86043e-09
1.00256e-06
4.9846e-09
1.00457e-06
8.09525e-09
1.00654e-06
9.5706e-09
1.00841e-06
1.21822e-08
1.00997e-06
1.18996e-08
1.01178e-06
1.53848e-08
1.01323e-06
1.32544e-08
1.0151e-06
1.86656e-08
1.01626e-06
1.48695e-08
1.0176e-06
2.19863e-08
1.01844e-06
1.69933e-08
1.0192e-06
2.4111e-08
1.02048e-06
2.02633e-08
1.02028e-06
2.76841e-08
1.02078e-06
2.36988e-08
1.01953e-06
3.33644e-08
1.01925e-06
2.63592e-08
1.01776e-06
4.03262e-08
1.01681e-06
3.23682e-08
1.0129e-06
4.58119e-08
1.0115e-06
4.37755e-08
1.00184e-06
5.48456e-08
9.98823e-07
5.60073e-08
9.86252e-07
7.75371e-08
9.75699e-07
6.99759e-08
9.68484e-07
1.11201e-07
9.52214e-07
1.05252e-07
9.42991e-07
1.48349e-07
1.61961e-07
9.38997e-07
1.00043e-06
1.43421e-09
1.00153e-06
3.87965e-09
1.00318e-06
6.44742e-09
1.0048e-06
7.95013e-09
1.00665e-06
1.03294e-08
1.00803e-06
1.05209e-08
1.00993e-06
1.3485e-08
1.01104e-06
1.21501e-08
1.01317e-06
1.65278e-08
1.01389e-06
1.41554e-08
1.01613e-06
1.97395e-08
1.01609e-06
1.70347e-08
1.01834e-06
2.18659e-08
1.01778e-06
2.08193e-08
1.01999e-06
2.54708e-08
1.01887e-06
2.48229e-08
1.02008e-06
3.21589e-08
1.01881e-06
2.7624e-08
1.01836e-06
4.07756e-08
1.01758e-06
3.31485e-08
1.01494e-06
4.84542e-08
1.01336e-06
4.53508e-08
1.00863e-06
5.95783e-08
1.00476e-06
5.98831e-08
9.98598e-07
8.36948e-08
9.92377e-07
7.6197e-08
9.86943e-07
1.16634e-07
9.80481e-07
1.11714e-07
9.77697e-07
1.51133e-07
1.6375e-07
9.75908e-07
1.00035e-06
1.08576e-09
1.00113e-06
3.09481e-09
1.00242e-06
5.16025e-09
1.00375e-06
6.624e-09
1.00545e-06
8.62132e-09
1.00674e-06
9.2401e-09
1.00862e-06
1.16023e-08
1.00968e-06
1.10919e-08
1.01175e-06
1.44587e-08
1.01262e-06
1.32846e-08
1.01467e-06
1.76833e-08
1.01535e-06
1.63532e-08
1.01692e-06
2.02966e-08
1.01768e-06
2.00636e-08
1.01887e-06
2.42798e-08
1.01907e-06
2.46254e-08
1.02026e-06
3.09666e-08
1.01917e-06
2.87157e-08
1.02033e-06
3.96146e-08
1.01863e-06
3.48515e-08
1.01818e-06
4.88974e-08
1.0168e-06
4.67382e-08
1.01453e-06
6.18433e-08
1.01158e-06
6.28358e-08
1.01067e-06
8.46057e-08
1.0048e-06
8.20664e-08
1.00596e-06
1.15475e-07
1.00253e-06
1.15142e-07
1.00427e-06
1.49391e-07
1.61339e-07
1.00668e-06
1.00026e-06
8.28813e-10
1.00084e-06
2.50694e-09
1.00191e-06
4.09478e-09
1.00304e-06
5.49124e-09
1.00464e-06
7.02261e-09
1.00587e-06
8.01325e-09
1.00777e-06
9.69797e-09
1.00881e-06
1.00595e-08
1.01105e-06
1.22175e-08
1.01175e-06
1.25778e-08
1.0143e-06
1.51368e-08
1.01465e-06
1.60035e-08
1.01709e-06
1.78611e-08
1.01732e-06
1.9827e-08
1.01935e-06
2.22548e-08
1.01979e-06
2.41789e-08
1.02109e-06
2.96745e-08
1.0213e-06
2.8504e-08
1.02206e-06
3.88516e-08
1.02179e-06
3.51203e-08
1.02216e-06
4.85291e-08
1.02139e-06
4.75031e-08
1.02133e-06
6.19056e-08
1.02029e-06
6.38826e-08
1.02078e-06
8.41103e-08
1.0191e-06
8.37452e-08
1.02207e-06
1.12507e-07
1.0222e-06
1.15009e-07
1.02742e-06
1.44179e-07
1.55108e-07
1.03365e-06
1.00022e-06
6.12674e-10
1.00072e-06
2.00226e-09
1.00167e-06
3.14605e-09
1.00273e-06
4.43579e-09
1.00421e-06
5.53298e-09
1.00549e-06
6.73737e-09
1.0073e-06
7.88358e-09
1.00855e-06
8.8104e-09
1.01062e-06
1.01473e-08
1.01179e-06
1.14084e-08
1.014e-06
1.2931e-08
1.01511e-06
1.48951e-08
1.01714e-06
1.58316e-08
1.01826e-06
1.87052e-08
1.02017e-06
2.03435e-08
1.02104e-06
2.33143e-08
1.02315e-06
2.75624e-08
1.02321e-06
2.84424e-08
1.02545e-06
3.66088e-08
1.02516e-06
3.54098e-08
1.02695e-06
4.67458e-08
1.02704e-06
4.74098e-08
1.02883e-06
6.01139e-08
1.02869e-06
6.40248e-08
1.03214e-06
8.06565e-08
1.03194e-06
8.39497e-08
1.03742e-06
1.0702e-07
1.04013e-06
1.12302e-07
1.04783e-06
1.36481e-07
1.47819e-07
1.05512e-06
1.0002e-06
4.17447e-10
1.00067e-06
1.52276e-09
1.00155e-06
2.27184e-09
1.00258e-06
3.40588e-09
1.00402e-06
4.09244e-09
1.00535e-06
5.40991e-09
1.00716e-06
6.06783e-09
1.00853e-06
7.44102e-09
1.01066e-06
8.01529e-09
1.012e-06
1.00747e-08
1.01433e-06
1.06002e-08
1.01569e-06
1.35377e-08
1.01788e-06
1.36397e-08
1.01943e-06
1.71507e-08
1.02139e-06
1.83891e-08
1.02313e-06
2.15737e-08
1.02505e-06
2.56351e-08
1.02637e-06
2.71282e-08
1.02866e-06
3.43208e-08
1.02939e-06
3.46777e-08
1.0321e-06
4.4039e-08
1.03302e-06
4.64837e-08
1.03601e-06
5.71276e-08
1.03775e-06
6.22788e-08
1.04195e-06
7.64601e-08
1.04438e-06
8.15225e-08
1.05107e-06
1.00326e-07
1.05608e-06
1.07289e-07
1.06533e-06
1.27233e-07
1.38082e-07
1.07507e-06
1.00018e-06
2.32679e-10
1.00067e-06
1.03587e-09
1.00152e-06
1.41961e-09
1.00259e-06
2.34225e-09
1.004e-06
2.6752e-09
1.00545e-06
3.96611e-09
1.00724e-06
4.27169e-09
1.00884e-06
5.84368e-09
1.01092e-06
5.93303e-09
1.01263e-06
8.37138e-09
1.01489e-06
8.33763e-09
1.01671e-06
1.17198e-08
1.01895e-06
1.13953e-08
1.02091e-06
1.51944e-08
1.02324e-06
1.60587e-08
1.02517e-06
1.96386e-08
1.02786e-06
2.29497e-08
1.02943e-06
2.5553e-08
1.03251e-06
3.12435e-08
1.03396e-06
3.32297e-08
1.03734e-06
4.06576e-08
1.03931e-06
4.4517e-08
1.04337e-06
5.30667e-08
1.04615e-06
5.94986e-08
1.05171e-06
7.0901e-08
1.05577e-06
7.74633e-08
1.06353e-06
9.25605e-08
1.07019e-06
1.00634e-07
1.08077e-06
1.16649e-07
1.27521e-07
1.09133e-06
1.00019e-06
4.68223e-11
1.00071e-06
5.14063e-10
1.00158e-06
5.47224e-10
1.00272e-06
1.20461e-09
1.00417e-06
1.22419e-09
1.00574e-06
2.39453e-09
1.00758e-06
2.42847e-09
1.00937e-06
4.05226e-09
1.0115e-06
3.80361e-09
1.01349e-06
6.38703e-09
1.01581e-06
6.0148e-09
1.01801e-06
9.51681e-09
1.02034e-06
9.07152e-09
1.02279e-06
1.27418e-08
1.02523e-06
1.3621e-08
1.02781e-06
1.70566e-08
1.03068e-06
2.00833e-08
1.03304e-06
2.31878e-08
1.03645e-06
2.78316e-08
1.03875e-06
3.09369e-08
1.04266e-06
3.67424e-08
1.04567e-06
4.15055e-08
1.05021e-06
4.85283e-08
1.05449e-06
5.52187e-08
1.06055e-06
6.48463e-08
1.06615e-06
7.18596e-08
1.07458e-06
8.41304e-08
1.08272e-06
9.24972e-08
1.09381e-06
1.05559e-07
1.15698e-07
1.10563e-06
1.00019e-06
-1.47982e-10
1.00078e-06
-7.11236e-11
1.0017e-06
-3.77267e-10
1.00296e-06
-4.65033e-11
1.00448e-06
-3.00602e-10
1.0062e-06
6.69971e-10
1.00812e-06
5.09259e-10
1.01012e-06
2.05412e-09
1.01232e-06
1.60654e-09
1.01458e-06
4.12418e-09
1.01702e-06
3.58047e-09
1.01954e-06
6.99589e-09
1.02208e-06
6.53103e-09
1.0248e-06
1.00198e-08
1.02763e-06
1.07861e-08
1.03052e-06
1.41694e-08
1.03386e-06
1.67407e-08
1.03676e-06
2.02886e-08
1.04058e-06
2.40191e-08
1.04368e-06
2.78323e-08
1.048e-06
3.24253e-08
1.05188e-06
3.76276e-08
1.05706e-06
4.33417e-08
1.06221e-06
5.00692e-08
1.06894e-06
5.8123e-08
1.07561e-06
6.51845e-08
1.08458e-06
7.51648e-08
1.09358e-06
8.34888e-08
1.1052e-06
9.39461e-08
1.03365e-07
1.11753e-06
1.00023e-06
-3.75976e-10
1.0009e-06
-7.45856e-10
1.00196e-06
-1.43075e-09
1.00336e-06
-1.45488e-09
1.00503e-06
-1.96434e-09
1.00693e-06
-1.23267e-09
1.00896e-06
-1.52227e-09
1.01116e-06
-1.42667e-10
1.01344e-06
-6.7705e-10
1.01598e-06
1.58348e-09
1.01853e-06
1.03275e-09
1.02139e-06
4.13353e-09
1.02409e-06
3.83828e-09
1.02717e-06
6.93592e-09
1.03024e-06
7.71679e-09
1.03358e-06
1.08304e-08
1.03722e-06
1.30949e-08
1.04071e-06
1.68022e-08
1.04486e-06
1.98666e-08
1.0487e-06
2.39992e-08
1.05335e-06
2.77713e-08
1.05805e-06
3.29252e-08
1.06356e-06
3.78337e-08
1.06954e-06
4.4091e-08
1.07665e-06
5.10167e-08
1.08408e-06
5.77528e-08
1.09331e-06
6.59279e-08
1.10307e-06
7.37303e-08
1.11476e-06
8.22626e-08
9.05562e-08
1.12756e-06
1.00026e-06
-6.32415e-10
1.00105e-06
-1.53484e-09
1.00225e-06
-2.63377e-09
1.00386e-06
-3.06856e-09
1.00568e-06
-3.78424e-09
1.00778e-06
-3.32858e-09
1.00994e-06
-3.6863e-09
1.01237e-06
-2.5756e-09
1.0148e-06
-3.10401e-09
1.01759e-06
-1.20515e-09
1.02036e-06
-1.73284e-09
1.02346e-06
1.02837e-09
1.02643e-06
8.74215e-10
1.02975e-06
3.60632e-09
1.03319e-06
4.28329e-09
1.03687e-06
7.14434e-09
1.04087e-06
9.10318e-09
1.04485e-06
1.28137e-08
1.04935e-06
1.53753e-08
1.0538e-06
1.95427e-08
1.05884e-06
2.27306e-08
1.06412e-06
2.76466e-08
1.07008e-06
3.18801e-08
1.07652e-06
3.76418e-08
1.08397e-06
4.35701e-08
1.09188e-06
4.98408e-08
1.10129e-06
5.652e-08
1.11138e-06
6.36462e-08
1.12311e-06
7.05234e-08
7.77405e-08
1.13593e-06
1.00038e-06
-1.01098e-09
1.00141e-06
-2.56646e-09
1.00291e-06
-4.1289e-09
1.0048e-06
-4.96275e-09
1.00685e-06
-5.83663e-09
1.00914e-06
-5.62107e-09
1.01149e-06
-6.03209e-09
1.01409e-06
-5.18039e-09
1.01671e-06
-5.72072e-09
1.01971e-06
-4.20318e-09
1.02267e-06
-4.69631e-09
1.02599e-06
-2.28719e-09
1.02916e-06
-2.29287e-09
1.03276e-06
4.11391e-12
1.03645e-06
5.93093e-10
1.04047e-06
3.11806e-09
1.04471e-06
4.86619e-09
1.04918e-06
8.3431e-09
1.05403e-06
1.05249e-08
1.05911e-06
1.44677e-08
1.0645e-06
1.73343e-08
1.07029e-06
2.18632e-08
1.07645e-06
2.5715e-08
1.08317e-06
3.09202e-08
1.09069e-06
3.60577e-08
1.09878e-06
4.17501e-08
1.10809e-06
4.72067e-08
1.11831e-06
5.34248e-08
1.12986e-06
5.89726e-08
6.48919e-08
1.14271e-06
1.00046e-06
-1.47294e-09
1.00184e-06
-3.94907e-09
1.00376e-06
-6.0418e-09
1.00602e-06
-7.22051e-09
1.00832e-06
-8.13919e-09
1.01082e-06
-8.12332e-09
1.01334e-06
-8.55033e-09
1.01618e-06
-8.0202e-09
1.01901e-06
-8.55107e-09
1.02227e-06
-7.46815e-09
1.0254e-06
-7.82738e-09
1.02891e-06
-5.79007e-09
1.03231e-06
-5.69723e-09
1.03628e-06
-3.96722e-09
1.04034e-06
-3.45971e-09
1.04464e-06
-1.19002e-09
1.04914e-06
3.73116e-10
1.05396e-06
3.52263e-09
1.05916e-06
5.32294e-09
1.06473e-06
8.89777e-09
1.07058e-06
1.1486e-08
1.07679e-06
1.5647e-08
1.08327e-06
1.92392e-08
1.09016e-06
2.40323e-08
1.09765e-06
2.85668e-08
1.10571e-06
3.36893e-08
1.11478e-06
3.81368e-08
1.12481e-06
4.33953e-08
1.13606e-06
4.77166e-08
5.2513e-08
1.14844e-06
1.00089e-06
-2.363e-09
1.00288e-06
-5.94088e-09
1.00527e-06
-8.42985e-09
1.00786e-06
-9.81106e-09
1.01038e-06
-1.06563e-08
1.01305e-06
-1.07963e-08
1.01578e-06
-1.12779e-08
1.01891e-06
-1.11501e-08
1.022e-06
-1.16467e-08
1.02544e-06
-1.09096e-08
1.0287e-06
-1.10844e-08
1.03236e-06
-9.44505e-09
1.03612e-06
-9.46132e-09
1.0404e-06
-8.25064e-09
1.04468e-06
-7.73668e-09
1.04907e-06
-5.57353e-09
1.0536e-06
-4.16167e-09
1.05884e-06
-1.71983e-09
1.06454e-06
-3.71436e-10
1.07082e-06
2.61509e-09
1.07721e-06
5.09553e-09
1.08379e-06
9.06885e-09
1.09025e-06
1.27766e-08
1.09689e-06
1.73913e-08
1.10387e-06
2.15843e-08
1.11146e-06
2.6106e-08
1.11995e-06
2.9646e-08
1.12954e-06
3.38071e-08
1.14034e-06
3.69148e-08
4.02535e-08
1.1526e-06
1.00186e-06
-4.22091e-09
1.00525e-06
-9.33401e-09
1.0085e-06
-1.16816e-08
1.01146e-06
-1.27728e-08
1.01422e-06
-1.34092e-08
1.01712e-06
-1.36982e-08
1.0201e-06
-1.42595e-08
1.02344e-06
-1.44896e-08
1.02661e-06
-1.48165e-08
1.03001e-06
-1.43062e-08
1.03306e-06
-1.41357e-08
1.03656e-06
-1.29424e-08
1.0402e-06
-1.31091e-08
1.04448e-06
-1.25265e-08
1.04858e-06
-1.1838e-08
1.05283e-06
-9.81818e-09
1.0571e-06
-8.43629e-09
1.0622e-06
-6.81607e-09
1.0678e-06
-5.97761e-09
1.07413e-06
-3.71613e-09
1.08079e-06
-1.5594e-09
1.0877e-06
2.15398e-09
1.09444e-06
6.03969e-09
1.10123e-06
1.0599e-08
1.10818e-06
1.46386e-08
1.11567e-06
1.86131e-08
1.12391e-06
2.14073e-08
1.13323e-06
2.44859e-08
1.14368e-06
2.64639e-08
2.86303e-08
1.1553e-06
1.00304e-06
-7.26088e-09
1.00684e-06
-1.31323e-08
1.00973e-06
-1.45776e-08
1.01187e-06
-1.491e-08
1.01367e-06
-1.52057e-08
1.01535e-06
-1.53781e-08
1.01689e-06
-1.58031e-08
1.01832e-06
-1.5921e-08
1.01926e-06
-1.57583e-08
1.02012e-06
-1.51636e-08
1.02067e-06
-1.46866e-08
1.02179e-06
-1.40568e-08
1.02288e-06
-1.42045e-08
1.02413e-06
-1.37731e-08
1.02493e-06
-1.2638e-08
1.02612e-06
-1.10102e-08
1.02786e-06
-1.0179e-08
1.03074e-06
-9.69046e-09
1.03403e-06
-9.27304e-09
1.0381e-06
-7.78138e-09
1.04242e-06
-5.88246e-09
1.04744e-06
-2.86183e-09
1.05313e-06
3.45462e-10
1.06e-06
3.72616e-09
1.06804e-06
6.60745e-09
1.07747e-06
9.18158e-09
1.08797e-06
1.09043e-08
1.09988e-06
1.25774e-08
1.11288e-06
1.34632e-08
1.43241e-08
1.12719e-06
9.92739e-07
9.79607e-07
9.65029e-07
9.50119e-07
9.34914e-07
9.19536e-07
9.03732e-07
8.87811e-07
8.72053e-07
8.5689e-07
8.42203e-07
8.28146e-07
8.13942e-07
8.00169e-07
7.87531e-07
7.7652e-07
7.66341e-07
7.56651e-07
7.47378e-07
7.39597e-07
7.33714e-07
7.30852e-07
7.31198e-07
7.34924e-07
7.41531e-07
7.50713e-07
7.61617e-07
7.74195e-07
7.87658e-07
8.01982e-07
3.56603e-07
-1.06953e-07
4.58517e-07
-1.01914e-07
5.16907e-07
-5.83892e-08
5.71913e-07
-5.50064e-08
6.16552e-07
-4.46392e-08
6.5642e-07
-3.98682e-08
7.05723e-07
-4.93025e-08
7.44832e-07
-3.91095e-08
8.35628e-07
-9.07958e-08
-1.07635e-07
9.43263e-07
7.44104e-07
-1.57448e-07
7.93304e-07
-1.51115e-07
8.1937e-07
-8.44543e-08
8.46356e-07
-8.19932e-08
8.86644e-07
-8.49267e-08
9.22635e-07
-7.58592e-08
9.49988e-07
-7.66562e-08
9.56745e-07
-4.58663e-08
1.00951e-06
-1.43557e-07
-1.65747e-07
1.06762e-06
8.70877e-07
-1.63219e-07
8.88847e-07
-1.69085e-07
8.99403e-07
-9.50109e-08
9.10661e-07
-9.32511e-08
9.25805e-07
-1.0007e-07
9.59516e-07
-1.09571e-07
9.82959e-07
-1.00099e-07
1.03241e-06
-9.53164e-08
1.0056e-06
-1.16749e-07
-2.02773e-07
1.04263e-06
9.34692e-07
-1.58914e-07
9.23571e-07
-1.57964e-07
9.44979e-07
-1.16419e-07
9.68221e-07
-1.16493e-07
9.78e-07
-1.09849e-07
9.82043e-07
-1.13614e-07
9.95062e-07
-1.13118e-07
1.03211e-06
-1.32368e-07
1.0459e-06
-1.30534e-07
-2.19139e-07
1.06226e-06
9.73546e-07
-1.56551e-07
9.74942e-07
-1.5936e-07
9.76553e-07
-1.18031e-07
9.85542e-07
-1.25482e-07
9.8875e-07
-1.13057e-07
1.00277e-06
-1.27632e-07
1.01469e-06
-1.25036e-07
1.03277e-06
-1.5045e-07
1.04324e-06
-1.41009e-07
-2.36466e-07
1.06057e-06
1.00342e-06
-1.5329e-07
9.97002e-07
-1.52941e-07
1.00359e-06
-1.24617e-07
1.00958e-06
-1.31477e-07
1.01698e-06
-1.20455e-07
1.02367e-06
-1.34325e-07
1.02771e-06
-1.29068e-07
1.03542e-06
-1.58163e-07
1.0555e-06
-1.61093e-07
-2.35354e-07
1.05439e-06
1.02806e-06
-1.47706e-07
1.02436e-06
-1.49235e-07
1.02536e-06
-1.2562e-07
1.02655e-06
-1.32667e-07
1.02866e-06
-1.22567e-07
1.0319e-06
-1.37562e-07
1.03692e-06
-1.3409e-07
1.04311e-06
-1.64351e-07
1.04999e-06
-1.67972e-07
-2.26913e-07
1.04155e-06
1.05044e-06
-1.43028e-07
1.04363e-06
-1.42428e-07
1.04323e-06
-1.25221e-07
1.04244e-06
-1.31876e-07
1.04376e-06
-1.23886e-07
1.04394e-06
-1.37738e-07
1.04565e-06
-1.35804e-07
1.0451e-06
-1.63794e-07
1.04791e-06
-1.70785e-07
-2.16981e-07
1.03798e-06
1.06813e-06
-1.36086e-07
1.06136e-06
-1.3566e-07
1.05842e-06
-1.22279e-07
1.05466e-06
-1.28118e-07
1.05289e-06
-1.22116e-07
1.05078e-06
-1.35631e-07
1.04958e-06
-1.34604e-07
1.04487e-06
-1.59081e-07
1.04261e-06
-1.68528e-07
-2.07346e-07
1.03297e-06
1.08371e-06
-1.28461e-07
1.07544e-06
-1.27395e-07
1.07065e-06
-1.17483e-07
1.06521e-06
-1.22683e-07
1.06147e-06
-1.18374e-07
1.05587e-06
-1.30027e-07
1.05255e-06
-1.31292e-07
1.04641e-06
-1.52936e-07
1.04019e-06
-1.62306e-07
-1.93249e-07
1.02609e-06
1.0965e-06
-1.1933e-07
1.08747e-06
-1.18369e-07
1.0806e-06
-1.10609e-07
1.0731e-06
-1.1518e-07
1.06725e-06
-1.12521e-07
1.06027e-06
-1.2305e-07
1.0538e-06
-1.24821e-07
1.04405e-06
-1.43183e-07
1.03497e-06
-1.53226e-07
-1.7976e-07
1.02148e-06
1.10731e-06
-1.09111e-07
1.09705e-06
-1.08108e-07
1.08877e-06
-1.02326e-07
1.07981e-06
-1.06221e-07
1.07193e-06
-1.04639e-07
1.06246e-06
-1.13581e-07
1.05424e-06
-1.166e-07
1.04343e-06
-1.32372e-07
1.03179e-06
-1.4159e-07
-1.63628e-07
1.01566e-06
1.11619e-06
-9.77351e-08
1.10504e-06
-9.69639e-08
1.09512e-06
-9.24021e-08
1.08464e-06
-9.57383e-08
1.07511e-06
-9.51089e-08
1.06443e-06
-1.02904e-07
1.05393e-06
-1.06095e-07
1.04101e-06
-1.19454e-07
1.02759e-06
-1.2817e-07
-1.46929e-07
1.01089e-06
1.12359e-06
-8.53987e-08
1.11135e-06
-8.47234e-08
1.10025e-06
-8.12963e-08
1.08857e-06
-8.40647e-08
1.07748e-06
-8.40113e-08
1.06521e-06
-9.06361e-08
1.05325e-06
-9.41339e-08
1.03922e-06
-1.05426e-07
1.02425e-06
-1.13196e-07
-1.28854e-07
1.00617e-06
1.12943e-06
-7.21218e-08
1.11632e-06
-7.16131e-08
1.10407e-06
-6.90415e-08
1.09129e-06
-7.12905e-08
1.07897e-06
-7.1684e-08
1.06566e-06
-7.7326e-08
1.05225e-06
-8.07287e-08
1.03697e-06
-9.01451e-08
1.02083e-06
-9.70506e-08
-1.10058e-07
1.00203e-06
1.13433e-06
-5.80065e-08
1.12027e-06
-5.75599e-08
1.10706e-06
-5.58233e-08
1.09336e-06
-5.7591e-08
1.07997e-06
-5.83012e-08
1.06561e-06
-6.29652e-08
1.05114e-06
-6.6251e-08
1.03496e-06
-7.39717e-08
1.01787e-06
-7.99603e-08
-9.0457e-08
9.98272e-07
1.13764e-06
-4.30492e-08
1.12283e-06
-4.27519e-08
1.10882e-06
-4.18132e-08
1.09434e-06
-4.31076e-08
1.08014e-06
-4.41072e-08
1.06496e-06
-4.77801e-08
1.04955e-06
-5.08389e-08
1.03248e-06
-5.69022e-08
1.01457e-06
-6.20479e-08
-7.01361e-08
9.94245e-07
1.13918e-06
-2.69204e-08
1.1232e-06
-2.67796e-08
1.10807e-06
-2.66749e-08
1.09255e-06
-2.759e-08
1.07731e-06
-2.88693e-08
1.06099e-06
-3.14591e-08
1.04438e-06
-3.42311e-08
1.02602e-06
-3.85392e-08
1.00675e-06
-4.27752e-08
-4.83466e-08
9.84956e-07
1.1097e-06
-9.42942e-09
1.09266e-06
-9.74766e-09
1.0761e-06
-1.01154e-08
1.05929e-06
-1.07774e-08
1.04233e-06
-1.19059e-08
1.02428e-06
-1.34102e-08
1.00541e-06
-1.53617e-08
9.84598e-07
-1.77277e-08
9.62269e-07
-2.04461e-08
-2.32694e-08
9.37192e-07
7.92552e-07
7.82805e-07
7.72689e-07
7.61912e-07
7.50006e-07
7.36596e-07
7.21234e-07
7.03506e-07
6.8306e-07
6.59791e-07
4.18344e-08
-4.18344e-08
1.17844e-08
3.005e-08
-9.05439e-08
1.02328e-07
-3.23692e-07
2.33149e-07
-5.78588e-07
2.54896e-07
-7.67935e-07
1.89346e-07
-9.13809e-07
1.45875e-07
-9.70773e-07
5.69638e-08
-9.49555e-07
-2.12177e-08
-8.5434e-07
-9.52153e-08
-7.10817e-07
-1.43524e-07
-5.36246e-07
-1.74571e-07
-3.51063e-07
-1.85183e-07
-1.73955e-07
-1.77109e-07
-1.1356e-08
-1.62599e-07
1.26592e-07
-1.37948e-07
2.3724e-07
-1.10647e-07
3.20933e-07
-8.3693e-08
3.80477e-07
-5.95437e-08
4.19192e-07
-3.8715e-08
4.40834e-07
-2.16422e-08
4.49458e-07
-8.6239e-09
4.4899e-07
4.68213e-10
4.42862e-07
6.12774e-09
4.33487e-07
9.3751e-09
4.2271e-07
1.07766e-08
4.11803e-07
1.09072e-08
4.01577e-07
1.02262e-08
3.92471e-07
9.10555e-09
3.84669e-07
7.80208e-09
3.78132e-07
6.53673e-09
3.72792e-07
5.34044e-09
3.68435e-07
4.35664e-09
3.64968e-07
3.46704e-09
3.62145e-07
2.82299e-09
3.59957e-07
2.18822e-09
3.58145e-07
1.8115e-09
3.56813e-07
1.33208e-09
3.55655e-07
1.15821e-09
7.66328e-10
4.35828e-08
-8.54172e-08
-1.39382e-08
8.7571e-08
-2.39315e-07
3.27705e-07
-4.97456e-07
4.9129e-07
-6.84e-07
4.4144e-07
-8.30444e-07
3.3579e-07
-9.24746e-07
2.40176e-07
-9.46121e-07
7.83394e-08
-8.92859e-07
-7.44796e-08
-7.79446e-07
-2.08629e-07
-6.28911e-07
-2.94058e-07
-4.55868e-07
-3.47614e-07
-2.69399e-07
-3.71651e-07
-8.9873e-08
-3.56635e-07
7.50945e-08
-3.27566e-07
2.17183e-07
-2.80037e-07
3.34542e-07
-2.28006e-07
4.27791e-07
-1.76942e-07
4.99271e-07
-1.31024e-07
5.51537e-07
-9.09813e-08
5.88307e-07
-5.84128e-08
6.13925e-07
-3.42413e-08
6.32178e-07
-1.77846e-08
6.45455e-07
-7.14968e-09
6.55343e-07
-5.13281e-10
6.62548e-07
3.57208e-09
6.67614e-07
5.84145e-09
6.70886e-07
6.95402e-09
6.72687e-07
7.30424e-09
6.73365e-07
7.12436e-09
6.73206e-07
6.696e-09
6.72535e-07
6.01131e-09
6.71527e-07
5.36406e-09
6.70437e-07
4.55794e-09
6.69295e-07
3.96429e-09
6.68298e-07
3.18551e-09
6.67357e-07
2.75286e-09
6.66648e-07
2.04075e-09
6.65996e-07
1.81055e-09
1.17552e-09
-7.81085e-08
-7.30876e-09
-2.27364e-07
2.36827e-07
-3.71677e-07
4.72018e-07
-4.78032e-07
5.97644e-07
-5.74678e-07
5.38087e-07
-6.69162e-07
4.30274e-07
-7.21694e-07
2.92708e-07
-7.16732e-07
7.33771e-08
-6.44871e-07
-1.4634e-07
-5.33393e-07
-3.20107e-07
-3.96268e-07
-4.31183e-07
-2.49257e-07
-4.94625e-07
-1.00321e-07
-5.20586e-07
4.94916e-08
-5.06448e-07
1.84437e-07
-4.62512e-07
3.02928e-07
-3.98527e-07
4.00871e-07
-3.2595e-07
4.80065e-07
-2.56135e-07
5.44493e-07
-1.95452e-07
5.94372e-07
-1.4086e-07
6.29029e-07
-9.30699e-08
6.51088e-07
-5.63002e-08
6.65621e-07
-3.23177e-08
6.7702e-07
-1.85489e-08
6.87549e-07
-1.10419e-08
6.97676e-07
-6.55526e-09
7.07143e-07
-3.62572e-09
7.15519e-07
-1.42214e-09
7.22538e-07
2.85882e-10
7.28051e-07
1.61104e-09
7.32181e-07
2.56569e-09
7.35126e-07
3.06609e-09
7.37111e-07
3.37959e-09
7.38394e-07
3.27458e-09
7.39167e-07
3.19171e-09
7.39637e-07
2.71567e-09
7.39889e-07
2.50085e-09
7.40071e-07
1.85882e-09
7.40183e-07
1.69783e-09
1.0022e-09
-4.79591e-08
4.06503e-08
-1.40718e-07
3.29586e-07
-2.07232e-07
5.38532e-07
-2.94842e-07
6.85254e-07
-3.65788e-07
6.09033e-07
-4.21643e-07
4.86129e-07
-4.27668e-07
2.98734e-07
-3.93929e-07
3.96375e-08
-3.17198e-07
-2.23071e-07
-2.07523e-07
-4.29782e-07
-9.10434e-08
-5.47663e-07
2.43407e-08
-6.10009e-07
1.3358e-07
-6.29826e-07
2.36274e-07
-6.09142e-07
3.28143e-07
-5.5438e-07
4.10704e-07
-4.81089e-07
4.79556e-07
-3.94801e-07
5.30208e-07
-3.06788e-07
5.72124e-07
-2.37367e-07
6.14082e-07
-1.82818e-07
6.52754e-07
-1.31742e-07
6.8093e-07
-8.44761e-08
6.9706e-07
-4.84474e-08
7.04936e-07
-2.6425e-08
7.09601e-07
-1.57069e-08
7.14171e-07
-1.11253e-08
7.19571e-07
-9.02589e-09
7.25455e-07
-7.30623e-09
7.31199e-07
-5.45794e-09
7.36293e-07
-3.48259e-09
7.40485e-07
-1.62713e-09
7.43733e-07
-1.81913e-10
7.46162e-07
9.50731e-10
7.47923e-07
1.51389e-09
7.49189e-07
1.92606e-09
7.50097e-07
1.80725e-09
7.50758e-07
1.8401e-09
7.51279e-07
1.33757e-09
7.51704e-07
1.2732e-09
5.81734e-10
-4.43522e-08
8.50025e-08
-9.95828e-08
3.84816e-07
-1.07977e-07
5.46927e-07
-9.17412e-08
6.69017e-07
-9.77537e-08
6.15045e-07
-1.06492e-07
4.94867e-07
-8.25929e-08
2.74835e-07
-3.71127e-08
-5.8427e-09
1.40861e-08
-2.7427e-07
7.68732e-08
-4.92569e-07
1.66941e-07
-6.37731e-07
2.62759e-07
-7.05827e-07
3.43405e-07
-7.10472e-07
4.13287e-07
-6.79025e-07
4.65796e-07
-6.06889e-07
5.10351e-07
-5.25645e-07
5.57253e-07
-4.41703e-07
5.89899e-07
-3.39434e-07
6.00578e-07
-2.48046e-07
6.08519e-07
-1.90759e-07
6.29458e-07
-1.52681e-07
6.60036e-07
-1.15054e-07
6.89036e-07
-7.74476e-08
7.09284e-07
-4.66721e-08
7.20505e-07
-2.69288e-08
7.26063e-07
-1.66827e-08
7.29483e-07
-1.2446e-08
7.32666e-07
-1.04894e-08
7.36142e-07
-8.93344e-09
7.39673e-07
-7.01349e-09
7.42907e-07
-4.86162e-09
7.45586e-07
-2.8605e-09
7.47677e-07
-1.14023e-09
7.49206e-07
-1.53033e-11
7.50342e-07
7.89939e-10
7.51172e-07
9.77292e-10
7.51814e-07
1.19793e-09
7.52344e-07
8.07778e-10
7.52807e-07
8.10222e-10
1.11913e-10
6.35328e-08
2.14697e-08
1.18764e-07
3.29585e-07
1.95498e-07
4.70192e-07
2.21407e-07
6.43108e-07
2.37876e-07
5.98577e-07
2.58173e-07
4.7457e-07
2.86871e-07
2.46137e-07
3.07867e-07
-2.68387e-08
3.18773e-07
-2.85176e-07
3.2836e-07
-5.02156e-07
3.62722e-07
-6.72092e-07
4.27636e-07
-7.70741e-07
4.95958e-07
-7.78794e-07
5.42507e-07
-7.25574e-07
5.67033e-07
-6.31414e-07
5.71713e-07
-5.30325e-07
5.86465e-07
-4.56455e-07
6.20211e-07
-3.73181e-07
6.39342e-07
-2.67177e-07
6.31306e-07
-1.82723e-07
6.19668e-07
-1.41043e-07
6.25222e-07
-1.20609e-07
6.48227e-07
-1.00452e-07
6.77594e-07
-7.60393e-08
7.03328e-07
-5.26622e-08
7.21139e-07
-3.44939e-08
7.31621e-07
-2.2928e-08
7.37314e-07
-1.61827e-08
7.40676e-07
-1.22952e-08
7.43109e-07
-9.44696e-09
7.45189e-07
-6.94077e-09
7.46974e-07
-4.64623e-09
7.48469e-07
-2.63529e-09
7.49671e-07
-1.21685e-09
7.50615e-07
-1.53962e-10
7.51342e-07
2.49845e-10
7.5191e-07
6.29805e-10
7.52403e-07
3.1519e-10
7.5283e-07
3.82907e-10
-3.40445e-10
-1.33406e-07
1.54875e-07
6.18517e-08
1.34328e-07
2.49979e-07
2.82065e-07
4.58049e-07
4.35039e-07
5.71576e-07
4.85049e-07
6.31418e-07
4.14729e-07
6.61843e-07
2.15711e-07
6.61731e-07
-2.67259e-08
6.38867e-07
-2.62312e-07
6.19932e-07
-4.83221e-07
6.19868e-07
-6.72028e-07
6.40341e-07
-7.91215e-07
6.6961e-07
-8.08063e-07
6.8357e-07
-7.39533e-07
6.81017e-07
-6.28862e-07
6.58206e-07
-5.07514e-07
6.22207e-07
-4.20456e-07
6.1276e-07
-3.63734e-07
6.33031e-07
-2.87447e-07
6.46735e-07
-1.96428e-07
6.39187e-07
-1.33495e-07
6.2682e-07
-1.08242e-07
6.27407e-07
-1.0104e-07
6.43987e-07
-9.26188e-08
6.69562e-07
-7.82372e-08
6.95655e-07
-6.0587e-08
7.16843e-07
-4.41157e-08
7.31356e-07
-3.06957e-08
7.40071e-07
-2.10105e-08
7.44811e-07
-1.41868e-08
7.47337e-07
-9.46731e-09
7.48771e-07
-6.08027e-09
7.49724e-07
-3.5884e-09
7.50414e-07
-1.90625e-09
7.50934e-07
-6.73894e-10
7.51355e-07
-1.71949e-10
7.51748e-07
2.37694e-10
7.52125e-07
-6.2656e-11
7.52486e-07
2.21755e-11
-7.75354e-10
6.94201e-07
4.03937e-07
5.01273e-07
3.27257e-07
4.61827e-07
3.2151e-07
5.84269e-07
3.12596e-07
7.32981e-07
3.36338e-07
8.50607e-07
2.97103e-07
9.20251e-07
1.46067e-07
9.37824e-07
-4.42989e-08
9.18468e-07
-2.42956e-07
9.03021e-07
-4.67774e-07
9.08301e-07
-6.77309e-07
9.015e-07
-7.84414e-07
8.69121e-07
-7.75684e-07
8.26239e-07
-6.96651e-07
7.90241e-07
-5.92863e-07
7.67113e-07
-4.84386e-07
7.33276e-07
-3.86619e-07
6.89916e-07
-3.20375e-07
6.71191e-07
-2.68722e-07
6.81538e-07
-2.06774e-07
6.96394e-07
-1.48351e-07
7.0042e-07
-1.12268e-07
6.9688e-07
-9.74993e-08
6.95453e-07
-9.11923e-08
7.02141e-07
-8.49249e-08
7.16802e-07
-7.52474e-08
7.35549e-07
-6.28628e-08
7.53758e-07
-4.89051e-08
7.68299e-07
-3.55513e-08
7.78119e-07
-2.4007e-08
7.83847e-07
-1.51948e-08
7.86721e-07
-8.95459e-09
7.88024e-07
-4.89103e-09
7.88609e-07
-2.49172e-09
7.88972e-07
-1.03671e-09
7.89284e-07
-4.83906e-10
7.896e-07
-7.87867e-11
7.899e-07
-3.62466e-10
7.9022e-07
-2.97655e-10
-1.12129e-09
1.0656e-06
4.05959e-07
1.00359e-06
3.89262e-07
9.3385e-07
3.91252e-07
9.30774e-07
3.15672e-07
9.785e-07
2.88612e-07
1.0525e-06
2.23106e-07
1.11826e-06
8.03022e-08
1.14542e-06
-7.14542e-08
1.14406e-06
-2.41602e-07
1.12724e-06
-4.50953e-07
1.09482e-06
-6.44891e-07
1.04925e-06
-7.38839e-07
9.71388e-07
-6.97822e-07
8.71026e-07
-5.96288e-07
7.91134e-07
-5.12972e-07
7.512e-07
-4.44451e-07
7.39148e-07
-3.74567e-07
7.2796e-07
-3.09186e-07
7.12451e-07
-2.53213e-07
7.07296e-07
-2.0162e-07
7.18491e-07
-1.59546e-07
7.38687e-07
-1.32464e-07
7.56542e-07
-1.15354e-07
7.64427e-07
-9.90783e-08
7.62438e-07
-8.29357e-08
7.56859e-07
-6.96677e-08
7.54354e-07
-6.03581e-08
7.57361e-07
-5.19122e-08
7.64394e-07
-4.2584e-08
7.7252e-07
-3.2133e-08
7.79458e-07
-2.21334e-08
7.84254e-07
-1.37502e-08
7.87043e-07
-7.68056e-09
7.88374e-07
-3.82244e-09
7.88886e-07
-1.5483e-09
7.89055e-07
-6.52927e-10
7.89121e-07
-1.4534e-10
7.89315e-07
-5.56165e-10
7.89544e-07
-5.26426e-10
-1.47433e-09
1.1125e-06
3.36082e-07
1.14297e-06
3.58797e-07
1.1571e-06
3.77117e-07
1.19098e-06
2.81797e-07
1.23167e-06
2.47924e-07
1.2846e-06
1.7017e-07
1.3383e-06
2.66032e-08
1.34986e-06
-8.30112e-08
1.3286e-06
-2.2034e-07
1.28745e-06
-4.09805e-07
1.19219e-06
-5.49634e-07
1.06375e-06
-6.10398e-07
9.57e-07
-5.91074e-07
8.74877e-07
-5.14165e-07
8.14652e-07
-4.52747e-07
7.77252e-07
-4.07052e-07
7.54601e-07
-3.51917e-07
7.45486e-07
-3.0007e-07
7.49348e-07
-2.57075e-07
7.56938e-07
-2.0921e-07
7.59772e-07
-1.6238e-07
7.61278e-07
-1.3397e-07
7.701e-07
-1.24177e-07
7.86859e-07
-1.15837e-07
8.03043e-07
-9.91191e-08
8.10082e-07
-7.67075e-08
8.06506e-07
-5.67817e-08
7.97343e-07
-4.27495e-08
7.88691e-07
-3.39311e-08
7.83698e-07
-2.71407e-08
7.82457e-07
-2.08918e-08
7.83434e-07
-1.47276e-08
7.85129e-07
-9.37537e-09
7.86737e-07
-5.43034e-09
7.87967e-07
-2.7784e-09
7.88786e-07
-1.47144e-09
7.89327e-07
-6.87104e-10
7.89627e-07
-8.55404e-10
7.8985e-07
-7.49429e-10
-1.6936e-09
1.11449e-06
2.83853e-07
1.14581e-06
3.27482e-07
1.19273e-06
3.30197e-07
1.23824e-06
2.36289e-07
1.28606e-06
2.00101e-07
1.34157e-06
1.14658e-07
1.37589e-06
-7.71746e-09
1.38134e-06
-8.84539e-08
1.35424e-06
-1.9324e-07
1.28879e-06
-3.44358e-07
1.1907e-06
-4.51549e-07
1.06075e-06
-4.80444e-07
9.54118e-07
-4.84442e-07
9.04209e-07
-4.64256e-07
8.76921e-07
-4.25459e-07
8.53334e-07
-3.83464e-07
8.27871e-07
-3.26454e-07
7.97099e-07
-2.69298e-07
7.78887e-07
-2.38863e-07
7.85974e-07
-2.16298e-07