/*--------------------------------*- C++ -*----------------------------------*\
| =========                 |                                                 |
| \\      /  F ield         | OpenFOAM: The Open Source CFD Toolbox           |
|  \\    /   O peration     | Version:  2112                                  |
|   \\  /    A nd           | Website:  www.openfoam.com                      |
|    \\/     M anipulation  |                                                 |
\*---------------------------------------------------------------------------*/
FoamFile
{
    version     2.0;
    format      ascii;
    arch        "LSB;label=32;scalar=64";
    class       volVectorField;
    location    "0.27";
    object      U;
}
// * * * * * * * * * * * * * * * * * * * * * * * * * * * * * * * * * * * * * //

dimensions      [0 1 -1 0 0 0 0];

internalField   nonuniform List<vector> 
1880
(
(0.0990128 0.000616448 0)
(0.0984315 0.00114047 0)
(0.0973463 0.00131111 0)
(0.0959209 0.00131834 0)
(0.0940637 0.00136638 0)
(0.0925138 0.00134096 0)
(0.0905455 0.00144828 0)
(0.0889905 0.00141611 0)
(0.0869219 0.00144874 0)
(0.085444 0.00135569 0)
(0.0831832 0.00139802 0)
(0.0818001 0.0013887 0)
(0.0794453 0.00143785 0)
(0.0779397 0.00142917 0)
(0.0753619 0.00128013 0)
(0.0740301 0.00137866 0)
(0.0713795 0.00127095 0)
(0.0699601 0.0017231 0)
(0.0668937 0.00124259 0)
(0.0653885 0.00194845 0)
(0.0619496 0.000642735 0)
(0.0609831 0.00215265 0)
(0.0567322 -8.25275e-05 0)
(0.0571595 0.00251766 0)
(0.0510063 0.000147275 0)
(0.0528291 0.00249696 0)
(0.0439607 0.00195216 0)
(0.0460114 0.00268147 0)
(0.0334753 0.00354435 0)
(0.0345746 0.00708478 0)
(0.0999405 0.000721471 0)
(0.100398 0.00138078 0)
(0.10053 0.00168581 0)
(0.101178 0.00169782 0)
(0.100826 0.00192202 0)
(0.101623 0.00180616 0)
(0.100723 0.00216221 0)
(0.101712 0.00194819 0)
(0.100434 0.00236878 0)
(0.101664 0.00204435 0)
(0.0999235 0.00244302 0)
(0.101195 0.00210153 0)
(0.0994543 0.00259453 0)
(0.100546 0.00234097 0)
(0.0986669 0.00287049 0)
(0.0993038 0.00225336 0)
(0.0979413 0.00311133 0)
(0.0973535 0.0023258 0)
(0.0975152 0.00360377 0)
(0.0946352 0.00265682 0)
(0.0968527 0.00394539 0)
(0.0917392 0.00278839 0)
(0.0943851 0.00413266 0)
(0.0892712 0.00299498 0)
(0.0901443 0.00424802 0)
(0.0857657 0.00482241 0)
(0.0854381 0.00458892 0)
(0.0791891 0.00793398 0)
(0.0792657 0.0088936 0)
(0.0692975 0.0102923 0)
(0.0999624 0.000257186 0)
(0.100263 0.00066663 0)
(0.100426 0.000977105 0)
(0.10097 0.00112276 0)
(0.100902 0.00134642 0)
(0.101613 0.00130436 0)
(0.101212 0.00164888 0)
(0.101952 0.00145032 0)
(0.101476 0.00195562 0)
(0.102272 0.00161136 0)
(0.101757 0.00214928 0)
(0.102115 0.00185907 0)
(0.102285 0.00221909 0)
(0.101845 0.00229544 0)
(0.102593 0.00243393 0)
(0.101415 0.00242011 0)
(0.102635 0.00301701 0)
(0.101039 0.00239029 0)
(0.102148 0.00385888 0)
(0.100546 0.00281239 0)
(0.101471 0.00390758 0)
(0.0997971 0.00399703 0)
(0.0999721 0.00374243 0)
(0.0984629 0.0049129 0)
(0.0974125 0.0057925 0)
(0.0956914 0.00479907 0)
(0.0950631 0.0103402 0)
(0.090606 0.00712614 0)
(0.0920597 0.0138133 0)
(0.0866339 0.0156462 0)
(0.0999652 0.000241754 0)
(0.100154 0.000621886 0)
(0.100206 0.000982532 0)
(0.100613 0.0011288 0)
(0.100531 0.00141276 0)
(0.10118 0.00134563 0)
(0.10084 0.00174323 0)
(0.101542 0.00145089 0)
(0.101074 0.00210489 0)
(0.10201 0.00155763 0)
(0.101249 0.00247711 0)
(0.102089 0.00167584 0)
(0.101707 0.0027207 0)
(0.102084 0.00197211 0)
(0.102109 0.00302444 0)
(0.101711 0.00238284 0)
(0.10252 0.00336926 0)
(0.101389 0.00280551 0)
(0.102383 0.00384363 0)
(0.101237 0.00344288 0)
(0.101866 0.00437763 0)
(0.100993 0.00442375 0)
(0.10103 0.0051919 0)
(0.0996338 0.00563209 0)
(0.0999171 0.00707578 0)
(0.0975922 0.00705237 0)
(0.0976674 0.0103342 0)
(0.0960409 0.0105127 0)
(0.0949673 0.0142089 0)
(0.0933611 0.0161301 0)
(0.0999681 0.00015203 0)
(0.100107 0.000409181 0)
(0.100123 0.000675173 0)
(0.100445 0.0008221 0)
(0.100374 0.0010622 0)
(0.100926 0.00106888 0)
(0.100721 0.00137086 0)
(0.101213 0.00123055 0)
(0.101027 0.00166385 0)
(0.101607 0.00144359 0)
(0.101285 0.00195337 0)
(0.10167 0.00174656 0)
(0.10172 0.00213308 0)
(0.101833 0.00210604 0)
(0.101909 0.00253696 0)
(0.101827 0.00237531 0)
(0.102071 0.00333614 0)
(0.101883 0.00246878 0)
(0.101936 0.00425815 0)
(0.101696 0.00301752 0)
(0.101735 0.00482856 0)
(0.101392 0.00432947 0)
(0.101163 0.00579856 0)
(0.100776 0.00557443 0)
(0.100096 0.00838689 0)
(0.0998784 0.00692931 0)
(0.0987088 0.0117795 0)
(0.0989043 0.0106265 0)
(0.0975294 0.0152972 0)
(0.0979302 0.0161976 0)
(0.0999673 0.000126993 0)
(0.100094 0.000350253 0)
(0.100082 0.000590015 0)
(0.100371 0.000740613 0)
(0.100263 0.000973453 0)
(0.100799 0.00100794 0)
(0.100584 0.00129686 0)
(0.101069 0.00117567 0)
(0.100884 0.00161279 0)
(0.101475 0.00136426 0)
(0.101165 0.00196375 0)
(0.101525 0.0016405 0)
(0.101673 0.00221116 0)
(0.10165 0.00203559 0)
(0.102008 0.00252855 0)
(0.101577 0.00257136 0)
(0.102282 0.0030655 0)
(0.101797 0.00303209 0)
(0.102048 0.00386838 0)
(0.101998 0.00357358 0)
(0.101709 0.00483419 0)
(0.101947 0.00467718 0)
(0.101556 0.00608117 0)
(0.101318 0.00632718 0)
(0.101238 0.00828465 0)
(0.100886 0.00822745 0)
(0.100384 0.0115011 0)
(0.100764 0.0116135 0)
(0.100102 0.0149755 0)
(0.100446 0.0166036 0)
(0.099969 9.498e-05 0)
(0.10008 0.000278022 0)
(0.10006 0.000454446 0)
(0.100311 0.00059783 0)
(0.100207 0.000766844 0)
(0.100688 0.000855825 0)
(0.100533 0.00104186 0)
(0.100927 0.00105803 0)
(0.100863 0.00129819 0)
(0.101331 0.00130648 0)
(0.101171 0.00159172 0)
(0.101433 0.00163951 0)
(0.101636 0.00186766 0)
(0.101705 0.00198787 0)
(0.101897 0.00234302 0)
(0.101796 0.0023536 0)
(0.102199 0.00313844 0)
(0.102063 0.00271664 0)
(0.10221 0.00403978 0)
(0.102211 0.00340995 0)
(0.102116 0.0049068 0)
(0.102371 0.00469426 0)
(0.102035 0.00624397 0)
(0.102237 0.00624837 0)
(0.102042 0.00860008 0)
(0.102137 0.00819005 0)
(0.101958 0.0115458 0)
(0.102493 0.0114677 0)
(0.102194 0.0148791 0)
(0.10309 0.0157471 0)
(0.0999705 7.2172e-05 0)
(0.100072 0.00022501 0)
(0.100052 0.000360322 0)
(0.100283 0.000493303 0)
(0.100181 0.00062725 0)
(0.100636 0.000735871 0)
(0.100506 0.000884455 0)
(0.100866 0.000942577 0)
(0.100855 0.00113113 0)
(0.101271 0.00119804 0)
(0.101214 0.00141922 0)
(0.101369 0.00154993 0)
(0.101749 0.0016874 0)
(0.101657 0.00196278 0)
(0.10208 0.00209141 0)
(0.101825 0.0024622 0)
(0.102395 0.00278184 0)
(0.102295 0.00295408 0)
(0.10241 0.00371985 0)
(0.102616 0.00357712 0)
(0.102514 0.00478166 0)
(0.102812 0.00476777 0)
(0.102828 0.00610222 0)
(0.102858 0.00649772 0)
(0.103113 0.00818057 0)
(0.103281 0.00852478 0)
(0.103375 0.0109493 0)
(0.104041 0.0115047 0)
(0.104258 0.014024 0)
(0.105031 0.0153126 0)
(0.0999735 5.12814e-05 0)
(0.100065 0.000176868 0)
(0.100054 0.00026949 0)
(0.100263 0.000392178 0)
(0.100181 0.000478055 0)
(0.100602 0.000609631 0)
(0.100513 0.000693054 0)
(0.100832 0.000818535 0)
(0.100878 0.000901729 0)
(0.101262 0.00108315 0)
(0.101254 0.00117059 0)
(0.101418 0.00142499 0)
(0.101792 0.00148085 0)
(0.101798 0.00177623 0)
(0.102138 0.001971 0)
(0.102051 0.00219991 0)
(0.102547 0.00271405 0)
(0.102574 0.0027373 0)
(0.102738 0.00357952 0)
(0.102962 0.00350201 0)
(0.103004 0.00454419 0)
(0.103373 0.00469998 0)
(0.103459 0.00590183 0)
(0.103692 0.00628452 0)
(0.10406 0.00792851 0)
(0.104349 0.00826414 0)
(0.104739 0.0104312 0)
(0.105484 0.0109944 0)
(0.105935 0.0132843 0)
(0.106916 0.0143064 0)
(0.0999768 3.23445e-05 0)
(0.100059 0.000128132 0)
(0.100062 0.000184061 0)
(0.100254 0.000287353 0)
(0.100195 0.000337644 0)
(0.10059 0.000469471 0)
(0.100542 0.000516747 0)
(0.100828 0.000666604 0)
(0.100931 0.000697027 0)
(0.101278 0.000928112 0)
(0.101342 0.000943909 0)
(0.101469 0.00127621 0)
(0.10192 0.00124119 0)
(0.101915 0.00164332 0)
(0.1023 0.00170144 0)
(0.102268 0.00209849 0)
(0.102754 0.0024076 0)
(0.102911 0.00266833 0)
(0.103067 0.00327516 0)
(0.10336 0.00341467 0)
(0.103561 0.00424416 0)
(0.103853 0.00458255 0)
(0.10422 0.00549696 0)
(0.104433 0.00615759 0)
(0.104961 0.00734705 0)
(0.105414 0.00802082 0)
(0.105943 0.00965409 0)
(0.106742 0.0104752 0)
(0.107489 0.0122077 0)
(0.10846 0.013365 0)
(0.0999807 1.38874e-05 0)
(0.100055 7.79888e-05 0)
(0.100075 9.84449e-05 0)
(0.100252 0.000178927 0)
(0.100224 0.000194781 0)
(0.100596 0.000320163 0)
(0.100591 0.000333554 0)
(0.100854 0.000497077 0)
(0.101002 0.000484036 0)
(0.10134 0.000739674 0)
(0.101434 0.000716476 0)
(0.101586 0.00106044 0)
(0.102038 0.00102855 0)
(0.102107 0.00138767 0)
(0.102458 0.0014981 0)
(0.102533 0.00182075 0)
(0.102999 0.00216688 0)
(0.103249 0.00243179 0)
(0.103446 0.00295718 0)
(0.103785 0.00321572 0)
(0.104078 0.00387101 0)
(0.104433 0.00430159 0)
(0.10488 0.00509992 0)
(0.105198 0.00572731 0)
(0.105816 0.00681507 0)
(0.106373 0.00748165 0)
(0.107022 0.00886486 0)
(0.10791 0.00967906 0)
(0.108784 0.011158 0)
(0.10983 0.0121885 0)
(0.0999846 -4.86659e-06 0)
(0.100051 2.40803e-05 0)
(0.100092 1.12928e-05 0)
(0.100257 6.37188e-05 0)
(0.100263 5.23676e-05 0)
(0.100619 0.000162533 0)
(0.100658 0.000156354 0)
(0.100901 0.000318838 0)
(0.101096 0.000281949 0)
(0.101423 0.000543424 0)
(0.101557 0.00049232 0)
(0.10172 0.000848186 0)
(0.102194 0.000792376 0)
(0.102314 0.00116391 0)
(0.102654 0.00123297 0)
(0.102816 0.00158887 0)
(0.103273 0.00185607 0)
(0.103605 0.00220087 0)
(0.103851 0.00260902 0)
(0.104206 0.00296799 0)
(0.104629 0.00347035 0)
(0.104981 0.00399609 0)
(0.105541 0.00459814 0)
(0.10594 0.00530954 0)
(0.106595 0.00616254 0)
(0.107271 0.00689813 0)
(0.108007 0.00798819 0)
(0.108916 0.00885349 0)
(0.109927 0.00999448 0)
(0.110997 0.0110015 0)
(0.0999885 -2.57495e-05 0)
(0.100051 -3.92003e-05 0)
(0.100115 -8.89807e-05 0)
(0.100276 -7.39472e-05 0)
(0.10032 -0.000114843 0)
(0.100668 -3.23855e-05 0)
(0.100751 -5.81094e-05 0)
(0.100984 8.48073e-05 0)
(0.101217 3.30802e-05 0)
(0.101544 0.000272158 0)
(0.101701 0.000215234 0)
(0.101895 0.000540684 0)
(0.102373 0.000503685 0)
(0.102557 0.00082863 0)
(0.102879 0.000911966 0)
(0.103119 0.00123252 0)
(0.10358 0.00147852 0)
(0.103974 0.0018431 0)
(0.104267 0.00218068 0)
(0.104663 0.00258339 0)
(0.10515 0.00300014 0)
(0.105562 0.00351363 0)
(0.106165 0.00405457 0)
(0.106642 0.00469341 0)
(0.107333 0.00545409 0)
(0.10808 0.00614738 0)
(0.108869 0.00705745 0)
(0.109819 0.00786648 0)
(0.110887 0.00882378 0)
(0.111994 0.00970559 0)
(0.0999918 -4.88354e-05 0)
(0.100052 -0.000107173 0)
(0.10014 -0.000191679 0)
(0.1003 -0.000210048 0)
(0.100385 -0.000269074 0)
(0.10073 -0.000206543 0)
(0.100855 -0.00023774 0)
(0.101084 -0.000110569 0)
(0.101358 -0.000163098 0)
(0.101687 5.22304e-05 0)
(0.101869 -2.6084e-06 0)
(0.102095 0.000296996 0)
(0.102581 0.000273821 0)
(0.102822 0.000569803 0)
(0.103138 0.000642061 0)
(0.103444 0.000944594 0)
(0.10392 0.00115091 0)
(0.10436 0.00152771 0)
(0.104709 0.00180197 0)
(0.105129 0.00222797 0)
(0.105683 0.00256571 0)
(0.106145 0.00308342 0)
(0.106778 0.00352732 0)
(0.107333 0.00413839 0)
(0.108036 0.00477111 0)
(0.108831 0.00542701 0)
(0.109669 0.00615685 0)
(0.110617 0.00691332 0)
(0.111727 0.00766469 0)
(0.112852 0.00844911 0)
(0.0999951 -8.27269e-05 0)
(0.100062 -0.000208954 0)
(0.100185 -0.000347719 0)
(0.100361 -0.000417828 0)
(0.100496 -0.000503783 0)
(0.100847 -0.000474631 0)
(0.101015 -0.000515882 0)
(0.101245 -0.000418486 0)
(0.101551 -0.000472541 0)
(0.101883 -0.000302388 0)
(0.102085 -0.000354293 0)
(0.102344 -9.90671e-05 0)
(0.102837 -0.00010582 0)
(0.103125 0.000138383 0)
(0.103436 0.000202243 0)
(0.103794 0.000470513 0)
(0.104289 0.00065562 0)
(0.104764 0.00101983 0)
(0.105163 0.00125775 0)
(0.105626 0.00166416 0)
(0.106227 0.00196379 0)
(0.106747 0.00242871 0)
(0.107395 0.0028314 0)
(0.107991 0.00337512 0)
(0.1087 0.00392962 0)
(0.109505 0.00453502 0)
(0.110356 0.0051464 0)
(0.111301 0.00582344 0)
(0.112414 0.00645485 0)
(0.113546 0.00711481 0)
(0.0999973 -0.000111251 0)
(0.100075 -0.00028822 0)
(0.100235 -0.000455603 0)
(0.100441 -0.000549408 0)
(0.100634 -0.000636989 0)
(0.100998 -0.00062461 0)
(0.101206 -0.000665981 0)
(0.101445 -0.000595459 0)
(0.10178 -0.000648891 0)
(0.102117 -0.00051863 0)
(0.102343 -0.000564714 0)
(0.102637 -0.000344615 0)
(0.103137 -0.000339228 0)
(0.103466 -0.00013704 0)
(0.103792 -7.75813e-05 0)
(0.104202 0.000165561 0)
(0.104723 0.000331029 0)
(0.105216 0.000663596 0)
(0.105661 0.000863397 0)
(0.106158 0.00124934 0)
(0.106807 0.00152534 0)
(0.107385 0.00196814 0)
(0.108055 0.0023376 0)
(0.108685 0.00283491 0)
(0.109404 0.0033086 0)
(0.110187 0.00384275 0)
(0.111049 0.00432328 0)
(0.111953 0.00489233 0)
(0.113052 0.00537183 0)
(0.11416 0.00590082 0)
(0.0999999 -0.000203963 0)
(0.100116 -0.000534482 0)
(0.100338 -0.000789251 0)
(0.100597 -0.00093062 0)
(0.100848 -0.00102616 0)
(0.101222 -0.00103372 0)
(0.101458 -0.00107709 0)
(0.101707 -0.00103938 0)
(0.102071 -0.00109203 0)
(0.102415 -0.00100308 0)
(0.102661 -0.00102845 0)
(0.102987 -0.000837307 0)
(0.103494 -0.000824548 0)
(0.103864 -0.0006768 0)
(0.104213 -0.000632588 0)
(0.104648 -0.000413568 0)
(0.105177 -0.000261952 0)
(0.105661 2.61751e-05 0)
(0.106174 0.000184039 0)
(0.106724 0.000508029 0)
(0.107452 0.000747458 0)
(0.108069 0.00113393 0)
(0.108768 0.00148255 0)
(0.109363 0.00194411 0)
(0.110072 0.00237785 0)
(0.110763 0.00287022 0)
(0.11161 0.00328364 0)
(0.11243 0.00377312 0)
(0.113525 0.00416695 0)
(0.114571 0.00458724 0)
(0.1 -0.000233172 0)
(0.10022 -0.000597988 0)
(0.100577 -0.000838059 0)
(0.100948 -0.000978636 0)
(0.101267 -0.00105785 0)
(0.101653 -0.00108305 0)
(0.101897 -0.00113744 0)
(0.102161 -0.00115082 0)
(0.102514 -0.00119732 0)
(0.102866 -0.001142 0)
(0.103104 -0.00115449 0)
(0.103446 -0.00102161 0)
(0.103898 -0.00103614 0)
(0.104266 -0.000941537 0)
(0.104608 -0.000883856 0)
(0.105044 -0.00067685 0)
(0.10555 -0.000551054 0)
(0.105982 -0.000358015 0)
(0.106503 -0.00025226 0)
(0.107038 3.24292e-05 0)
(0.107805 0.000296132 0)
(0.108429 0.000711965 0)
(0.109192 0.00110767 0)
(0.10977 0.00156996 0)
(0.110538 0.00197328 0)
(0.111158 0.00238181 0)
(0.112048 0.00267305 0)
(0.112784 0.0030141 0)
(0.113903 0.00324496 0)
(0.114868 0.00350338 0)
(0.0999994 -0.000694725 0)
(0.100322 -0.00135697 0)
(0.100732 -0.00156511 0)
(0.10109 -0.00163312 0)
(0.101311 -0.00168088 0)
(0.101564 -0.00170973 0)
(0.101635 -0.0017632 0)
(0.101768 -0.0017921 0)
(0.101867 -0.00181012 0)
(0.102034 -0.00176091 0)
(0.101957 -0.00171197 0)
(0.10215 -0.00160491 0)
(0.102246 -0.0016265 0)
(0.102426 -0.00160683 0)
(0.102369 -0.00152651 0)
(0.102582 -0.00132417 0)
(0.102683 -0.00116849 0)
(0.102973 -0.00103519 0)
(0.103187 -0.000976269 0)
(0.103621 -0.000805391 0)
(0.104026 -0.00062815 0)
(0.104542 -0.000306065 0)
(0.105024 6.13458e-05 0)
(0.105675 0.000504004 0)
(0.106387 0.000907554 0)
(0.107288 0.00129795 0)
(0.108259 0.00157133 0)
(0.109399 0.00184986 0)
(0.110623 0.00201349 0)
(0.111999 0.00217715 0)
(0.0990316 -0.000606542 0)
(0.0984378 -0.00113833 0)
(0.0974544 -0.00127662 0)
(0.0960062 -0.00129465 0)
(0.0943488 -0.00129859 0)
(0.0927759 -0.00130377 0)
(0.0911536 -0.00134211 0)
(0.0895472 -0.00134648 0)
(0.0879913 -0.00130121 0)
(0.0864772 -0.00123625 0)
(0.0849005 -0.00119413 0)
(0.0835459 -0.00117266 0)
(0.0821138 -0.00117548 0)
(0.0807229 -0.00111085 0)
(0.079282 -0.000971655 0)
(0.078225 -0.000851681 0)
(0.0771153 -0.000841509 0)
(0.076211 -0.000877078 0)
(0.0751183 -0.000849611 0)
(0.0743729 -0.000719945 0)
(0.0735599 -0.000519734 0)
(0.0732471 -0.000247098 0)
(0.0729828 1.46552e-05 0)
(0.0733301 0.000257381 0)
(0.0737065 0.000430554 0)
(0.0746673 0.000553512 0)
(0.0755018 0.000624684 0)
(0.076874 0.000685181 0)
(0.0779777 0.000706381 0)
(0.0796161 0.000726704 0)
(0.0160263 0.00216794 0)
(0.0556682 0.0182554 0)
(0.0402668 0.0186724 0)
(0.0697828 0.0312752 8.42251e-22)
(0.0566885 0.0263972 7.04403e-22)
(0.0823086 0.0337764 0)
(0.0723023 0.0299249 2.65592e-22)
(0.0976818 0.040238 -4.37993e-23)
(0.0898222 0.0435209 7.20235e-22)
(0.127372 0.0496172 0)
(0.0696083 0.016637 0)
(0.0806771 0.0252756 0)
(0.0840437 0.0278206 0)
(0.0906315 0.0329062 0)
(0.0957006 0.0360746 0)
(0.10459 0.0460211 1.62855e-22)
(0.111087 0.0461848 4.17864e-23)
(0.117428 0.0530028 -1.02238e-22)
(0.120762 0.0365621 -5.58981e-22)
(0.139189 0.0533697 -4.99587e-22)
(0.0858861 0.0211112 0)
(0.0899851 0.0201237 0)
(0.0946679 0.0348067 0)
(0.098226 0.0350915 0)
(0.102077 0.0353657 0)
(0.108665 0.0343966 -1.62854e-22)
(0.115083 0.0395263 -4.17866e-23)
(0.124668 0.0461139 1.02241e-22)
(0.131638 0.0468641 2.96632e-22)
(0.131494 0.0346318 4.99572e-22)
(0.0942721 0.0223051 -3.98052e-22)
(0.0949286 0.0238439 0)
(0.0975322 0.0272699 -3.15034e-22)
(0.1045 0.0314129 -2.508e-22)
(0.109081 0.0332617 -1.78686e-22)
(0.112556 0.0362965 0)
(0.117185 0.0378948 0)
(0.12367 0.0390204 1.40413e-22)
(0.134152 0.0413326 2.91886e-22)
(0.137851 0.0369306 4.43464e-22)
(0.0967268 0.0217717 3.98053e-22)
(0.100629 0.0218711 0)
(0.102441 0.0284349 3.15036e-22)
(0.107003 0.0290491 2.50801e-22)
(0.110401 0.0317073 1.78686e-22)
(0.114473 0.0310363 0)
(0.120283 0.0335115 0)
(0.126616 0.0334846 -1.40414e-22)
(0.13236 0.0378863 -2.919e-22)
(0.139216 0.0287378 -4.43467e-22)
(0.100695 0.0204192 0)
(0.102923 0.0217617 -2.84268e-22)
(0.105331 0.0251966 0)
(0.109754 0.0262199 -1.82908e-22)
(0.113482 0.0287113 0)
(0.117533 0.0292604 0)
(0.122592 0.0313614 0)
(0.12691 0.0301371 -1.57364e-22)
(0.133205 0.0321884 0)
(0.140891 0.0272529 0)
(0.103238 0.0197408 2.82605e-22)
(0.105731 0.0199302 5.36548e-22)
(0.108223 0.0237715 2.09734e-22)
(0.111885 0.0242023 1.82909e-22)
(0.11518 0.026369 0)
(0.118927 0.0257324 -2.5836e-23)
(0.123471 0.0279814 0)
(0.128629 0.0265802 1.57364e-22)
(0.133612 0.0278195 0)
(0.139036 0.022359 0)
(0.105781 0.0181169 -2.82606e-22)
(0.107939 0.0189303 -2.52279e-22)
(0.110365 0.021443 -2.09734e-22)
(0.113715 0.0217803 0)
(0.11708 0.0237796 0)
(0.120568 0.0236207 2.58361e-23)
(0.124756 0.0248615 0)
(0.129224 0.0231896 0)
(0.133555 0.0242392 0)
(0.138258 0.0210418 0)
(0.107787 0.0168206 0)
(0.109827 0.0172642 -2.0099e-22)
(0.112276 0.0195951 0)
(0.115298 0.0197897 -1.15421e-22)
(0.118316 0.0212956 0)
(0.121685 0.0206638 0)
(0.125522 0.0221744 7.14343e-23)
(0.129552 0.0207255 1.52693e-22)
(0.133119 0.0206206 0)
(0.137326 0.017192 3.19447e-22)
(0.109561 0.015243 0)
(0.111441 0.0158426 2.00991e-22)
(0.113792 0.0174866 0)
(0.116579 0.0176629 1.15421e-22)
(0.119518 0.0189788 0)
(0.12257 0.0185836 0)
(0.125977 0.0192354 -7.14344e-23)
(0.129751 0.0178421 -1.52693e-22)
(0.133193 0.0179635 0)
(0.136461 0.0156025 -3.19448e-22)
(0.111019 0.0137455 9.44944e-23)
(0.112818 0.014197 0)
(0.115066 0.0156455 0)
(0.117625 0.0157242 4.39024e-23)
(0.120323 0.0166636 0)
(0.123273 0.0161654 0)
(0.126445 0.0168736 0)
(0.12965 0.0156345 -7.04961e-23)
(0.13258 0.0152202 0)
(0.135666 0.0129521 0)
(0.112266 0.0122063 -7.63974e-24)
(0.113964 0.0126652 0)
(0.116081 0.0137232 5.85005e-23)
(0.118498 0.0138067 -4.98168e-24)
(0.121056 0.0145655 0)
(0.123713 0.014166 0)
(0.126584 0.0144382 -3.65874e-23)
(0.129586 0.013348 7.04962e-23)
(0.132347 0.0130167 -9.83339e-23)
(0.134936 0.0112133 -1.3056e-22)
(0.11329 0.0106972 -6.37038e-24)
(0.114929 0.0110576 0)
(0.116928 0.0119504 -5.08005e-24)
(0.11916 0.0119874 -3.92198e-24)
(0.121544 0.0125173 1.41831e-23)
(0.124078 0.0121242 9.44162e-24)
(0.126728 0.012332 9.44968e-25)
(0.129357 0.0113617 -6.37891e-23)
(0.131837 0.0108876 5.63851e-24)
(0.134253 0.00926692 8.00233e-24)
(0.114154 0.00922396 -8.04846e-23)
(0.115725 0.00954163 0)
(0.117598 0.0102174 -5.34206e-23)
(0.119701 0.0102416 -3.49989e-23)
(0.12195 0.010633 -1.41831e-23)
(0.124277 0.010286 -1.94073e-23)
(0.126711 0.010313 3.56425e-23)
(0.129151 0.00946659 6.37892e-23)
(0.131459 0.00902202 9.26957e-23)
(0.133627 0.0076708 1.22558e-22)
(0.11485 0.00774971 0)
(0.116361 0.00800326 0)
(0.118135 0.00854226 0)
(0.120096 0.00855223 0)
(0.12221 0.00881372 0)
(0.124402 0.00848842 9.96564e-24)
(0.126667 0.00845319 0)
(0.128893 0.00771936 0)
(0.131026 0.00726754 0)
(0.133048 0.00610395 0)
(0.115447 0.00637584 0)
(0.116882 0.0065739 0)
(0.118571 0.00696816 0)
(0.120397 0.00696228 0)
(0.122405 0.00712497 0)
(0.124441 0.00683038 4.81733e-24)
(0.126566 0.00672144 0)
(0.128637 0.00608883 0)
(0.130651 0.0056676 0)
(0.132522 0.00470314 0)
(0.115895 0.00495269 0)
(0.117225 0.00510683 0)
(0.118889 0.0053868 2.08649e-23)
(0.120552 0.00537601 0)
(0.122501 0.00545995 4.9619e-24)
(0.124365 0.00519829 -4.81734e-24)
(0.126416 0.00505907 0)
(0.128299 0.00452959 -2.59399e-23)
(0.130239 0.00414246 0)
(0.13194 0.0033563 0)
(0.116224 0.00371338 0)
(0.117307 0.00379289 0)
(0.118995 0.00394311 -2.0865e-23)
(0.120361 0.00390941 0)
(0.122321 0.00390848 -4.96192e-24)
(0.123852 0.00367681 0)
(0.125903 0.00350109 0)
(0.127424 0.00305842 2.59399e-23)
(0.129359 0.00269848 0)
(0.130653 0.0020829 0)
(0.113427 0.00227447 -7.80716e-24)
(0.114143 0.00230778 -6.51747e-24)
(0.115839 0.00234634 -5.0126e-24)
(0.116689 0.00230774 0)
(0.118608 0.00224729 -1.30051e-24)
(0.119491 0.00207946 0)
(0.121472 0.00190216 3.33018e-24)
(0.122183 0.00159383 0)
(0.124012 0.00129228 8.70966e-24)
(0.124284 0.000880091 1.15843e-23)
(0.0808726 0.000702897 7.80629e-24)
(0.0816854 0.000649365 6.51668e-24)
(0.0830871 0.000591751 5.01196e-24)
(0.0838786 0.000526267 0)
(0.0853339 0.000436388 1.30032e-24)
(0.0859395 0.000333801 0)
(0.0872603 0.000196692 -3.32965e-24)
(0.0874151 4.66715e-05 0)
(0.0883583 -0.000131048 -8.70809e-24)
(0.0877295 -0.000309337 -1.15822e-23)
(0.00572183 0.00290423 0)
(0.00562879 0.00269963 0)
(-0.00208368 0.00607207 0)
(-0.0221773 0.0104928 0)
(-0.0698827 0.0165361 0)
(-0.0950657 0.0109746 0)
(-0.123258 0.00938817 0)
(-0.133839 0.00430571 0)
(-0.136493 0.000403493 0)
(-0.126751 -0.00375153 0)
(-0.109686 -0.00628092 0)
(-0.0871308 -0.00796414 0)
(-0.0614104 -0.00785564 0)
(-0.0369539 -0.00774372 0)
(-0.012026 -0.00687634 0)
(0.00871091 -0.00561825 0)
(0.026126 -0.00420891 0)
(0.0396207 -0.00281751 0)
(0.0496129 -0.00157814 0)
(0.0564631 -0.000518656 0)
(0.0606805 0.000320687 0)
(0.0627501 0.000897164 0)
(0.0632096 0.001223 0)
(0.0626342 0.00135546 0)
(0.0614635 0.00132862 0)
(0.0599966 0.00120685 0)
(0.0584356 0.00103629 0)
(0.0569374 0.000848175 0)
(0.0555655 0.000667903 0)
(0.0543868 0.000510229 0)
(0.0533721 0.000382365 0)
(0.0525558 0.000283045 0)
(0.0518648 0.000210418 0)
(0.0513355 0.000156219 0)
(0.050882 0.00011923 0)
(0.0505459 8.88955e-05 0)
(0.0502603 7.07201e-05 0)
(0.0500372 5.06445e-05 0)
(0.0498865 4.33885e-05 0)
(0.0497005 2.87618e-05 0)
(0.0049471 -0.0118366 0)
(0.00683121 0.00285988 0)
(-0.0103379 0.0148212 0)
(-0.0550522 0.0369993 0)
(-0.0866007 0.0335873 0)
(-0.108026 0.0257516 0)
(-0.127651 0.0188711 0)
(-0.133127 0.00654375 0)
(-0.129851 -0.00490107 0)
(-0.11763 -0.0158381 0)
(-0.0978296 -0.0229312 0)
(-0.0762455 -0.0273994 0)
(-0.049912 -0.0295324 0)
(-0.0250898 -0.0274824 0)
(-0.000356888 -0.0254506 0)
(0.020907 -0.0217091 0)
(0.039101 -0.0176734 0)
(0.0537622 -0.0136953 0)
(0.0652973 -0.0101457 0)
(0.0739717 -0.00709103 0)
(0.0801966 -0.00456528 0)
(0.0845259 -0.00257905 0)
(0.0875012 -0.00111956 0)
(0.0896427 -0.000110711 0)
(0.0911986 0.000537427 0)
(0.0923878 0.000922168 0)
(0.0932097 0.00111083 0)
(0.0938033 0.00116156 0)
(0.0941152 0.0011212 0)
(0.0943063 0.00102398 0)
(0.0942938 0.000905112 0)
(0.0942596 0.000770925 0)
(0.0940931 0.00065167 0)
(0.0939753 0.000531632 0)
(0.0937771 0.000442636 0)
(0.093654 0.000347236 0)
(0.0934914 0.000290972 0)
(0.093386 0.000214984 0)
(0.0932927 0.000187445 0)
(0.0931917 0.000124356 0)
(0.000290586 -0.00442371 0)
(-0.0220506 0.0152213 0)
(-0.0403974 0.0487491 0)
(-0.0621945 0.0585981 0)
(-0.0740105 0.0525369 0)
(-0.0892041 0.0400801 0)
(-0.101276 0.0278654 0)
(-0.102694 0.0083264 0)
(-0.0963616 -0.0108416 0)
(-0.0815925 -0.027126 0)
(-0.0655182 -0.03735 0)
(-0.0438747 -0.0435027 0)
(-0.0247705 -0.0459231 0)
(-0.00301875 -0.0447483 0)
(0.016595 -0.040745 0)
(0.0343394 -0.0348258 0)
(0.0495371 -0.028351 0)
(0.0618034 -0.0220251 0)
(0.0718647 -0.0162957 0)
(0.08005 -0.0112723 0)
(0.0860794 -0.00724153 0)
(0.0900131 -0.00436249 0)
(0.092398 -0.00250735 0)
(0.0941029 -0.00135898 0)
(0.0955649 -0.000648241 0)
(0.0970348 -0.000198802 0)
(0.0983864 8.48255e-05 0)
(0.0996809 0.000265612 0)
(0.100724 0.000377421 0)
(0.101641 0.000436185 0)
(0.102265 0.000465067 0)
(0.102796 0.00045739 0)
(0.10308 0.000442402 0)
(0.103349 0.000396573 0)
(0.103432 0.000363296 0)
(0.103562 0.000299981 0)
(0.103558 0.000267651 0)
(0.10363 0.000199163 0)
(0.103607 0.000179303 0)
(0.103655 0.000112909 0)
(0.00317715 0.00281912 0)
(-0.0162116 0.0332899 0)
(-0.0216505 0.0483327 0)
(-0.0376738 0.0628425 0)
(-0.0467542 0.0538753 0)
(-0.0574565 0.0440544 0)
(-0.0629911 0.029086 0)
(-0.0584446 0.00551651 0)
(-0.0505417 -0.0194538 0)
(-0.0362959 -0.0381472 0)
(-0.0202713 -0.0499054 0)
(-0.00460497 -0.0566914 0)
(0.0117868 -0.059522 0)
(0.0260362 -0.057633 0)
(0.0394964 -0.0526035 0)
(0.0514836 -0.0454592 0)
(0.0624714 -0.0372814 0)
(0.0707954 -0.029621 0)
(0.076876 -0.0231644 0)
(0.0827864 -0.0171584 0)
(0.088846 -0.0114826 0)
(0.093842 -0.00687855 0)
(0.0968801 -0.00389801 0)
(0.0983754 -0.0023003 0)
(0.0990659 -0.00153687 0)
(0.0996762 -0.00112233 0)
(0.100341 -0.000827267 0)
(0.101191 -0.000563218 0)
(0.101988 -0.000325492 0)
(0.102801 -0.000125795 0)
(0.103406 3.49615e-05 0)
(0.103973 0.000143389 0)
(0.104309 0.000223348 0)
(0.10465 0.000251855 0)
(0.104797 0.00027226 0)
(0.105002 0.00024392 0)
(0.105046 0.000234432 0)
(0.105186 0.000174622 0)
(0.105188 0.000161268 0)
(0.105301 8.771e-05 0)
(-0.00403176 0.00580219 0)
(-0.00873846 0.0311905 0)
(-0.0176603 0.0568998 0)
(-0.0137686 0.0717636 0)
(-0.012819 0.0666918 0)
(-0.0155235 0.0531871 0)
(-0.0155787 0.0305554 0)
(-0.00819677 0.0026517 0)
(-0.00185193 -0.0256668 0)
(0.00624171 -0.0477916 0)
(0.0162844 -0.0598132 0)
(0.031424 -0.0654702 0)
(0.0432345 -0.0671017 0)
(0.0532853 -0.0652623 0)
(0.0616781 -0.0593014 0)
(0.06764 -0.0515858 0)
(0.074214 -0.0421315 0)
(0.0808029 -0.0319664 0)
(0.0835462 -0.0245356 0)
(0.0840525 -0.0196762 0)
(0.0859996 -0.0151284 0)
(0.0901184 -0.010223 0)
(0.0946903 -0.00594001 0)
(0.0982663 -0.00308326 0)
(0.100347 -0.00166497 0)
(0.101409 -0.00113953 0)
(0.101912 -0.000998358 0)
(0.102376 -0.000904908 0)
(0.102807 -0.000760948 0)
(0.103354 -0.000564835 0)
(0.103791 -0.000356023 0)
(0.104258 -0.00017817 0)
(0.104537 -3.46617e-05 0)
(0.104842 4.60868e-05 0)
(0.104963 0.000106006 0)
(0.105157 0.000110306 0)
(0.105192 0.000126221 0)
(0.105335 8.68972e-05 0)
(0.105336 8.84121e-05 0)
(0.105461 2.66676e-05 0)
(0.00682825 0.01063 0)
(0.0112419 0.0475317 0)
(0.0237309 0.0540853 0)
(0.0293865 0.0644261 0)
(0.0311111 0.0560991 0)
(0.0335922 0.0437544 0)
(0.0369607 0.0226561 0)
(0.042188 -0.00411141 0)
(0.0453118 -0.030341 0)
(0.0457425 -0.0518561 0)
(0.0481445 -0.0680333 0)
(0.0549215 -0.075351 0)
(0.0661116 -0.0747896 0)
(0.0731081 -0.0705014 0)
(0.0778988 -0.0624361 0)
(0.0795603 -0.0542626 0)
(0.0794498 -0.0470331 0)
(0.0838514 -0.0365271 0)
(0.0890687 -0.0252643 0)
(0.0893972 -0.0184044 0)
(0.0869666 -0.0153341 0)
(0.0863213 -0.0127708 0)
(0.0886753 -0.00954663 0)
(0.092802 -0.00625346 0)
(0.0968917 -0.00372934 0)
(0.100018 -0.00220307 0)
(0.101899 -0.00149129 0)
(0.102969 -0.00119308 0)
(0.103502 -0.00102899 0)
(0.103917 -0.00084277 0)
(0.104183 -0.000618736 0)
(0.104501 -0.000392249 0)
(0.10468 -0.000189124 0)
(0.10492 -4.83612e-05 0)
(0.10501 5.92633e-05 0)
(0.105183 9.34357e-05 0)
(0.10521 0.000122248 0)
(0.105344 8.16373e-05 0)
(0.105342 7.95622e-05 0)
(0.105461 -3.0965e-06 0)
(-0.0449423 -0.00646065 0)
(0.00629876 0.0149787 0)
(0.0126836 0.0404863 0)
(0.0546835 0.0636693 0)
(0.0723386 0.0654298 0)
(0.0845359 0.0533195 0)
(0.0902148 0.0283624 0)
(0.093714 -0.000629931 0)
(0.0923782 -0.0254236 0)
(0.0888524 -0.0476545 0)
(0.087215 -0.06666 0)
(0.0884276 -0.0794098 0)
(0.0924607 -0.0810248 0)
(0.0953347 -0.0742465 0)
(0.0950986 -0.06306 0)
(0.0942458 -0.0509637 0)
(0.088946 -0.0439213 0)
(0.0843865 -0.0382977 0)
(0.0865036 -0.0285004 0)
(0.0902656 -0.0183523 0)
(0.0904284 -0.0128787 0)
(0.0882552 -0.011303 0)
(0.0871066 -0.0105291 0)
(0.0884976 -0.00895085 0)
(0.0917576 -0.00679768 0)
(0.0956705 -0.00469799 0)
(0.099087 -0.00310777 0)
(0.101628 -0.00206075 0)
(0.103165 -0.00144376 0)
(0.104076 -0.00105561 0)
(0.104494 -0.000777064 0)
(0.104785 -0.000545507 0)
(0.104892 -0.000348429 0)
(0.105052 -0.000205474 0)
(0.105081 -9.48087e-05 0)
(0.1052 -4.95348e-05 0)
(0.105198 -5.44864e-06 0)
(0.105308 -2.49856e-05 0)
(0.105298 -8.91239e-06 0)
(0.10541 -6.83883e-05 0)
(0.116925 0.0371019 0)
(0.0760257 0.0149283 0)
(0.053862 0.0171986 0)
(0.0690384 0.0244159 0)
(0.0861607 0.0327736 0)
(0.105923 0.0311709 0)
(0.118944 0.0159395 0)
(0.124944 -0.0043522 0)
(0.125151 -0.0258616 0)
(0.122028 -0.0484806 0)
(0.121697 -0.0680365 0)
(0.123038 -0.0791268 0)
(0.119111 -0.080696 0)
(0.112666 -0.074002 0)
(0.106353 -0.0634353 0)
(0.103117 -0.0508271 0)
(0.100583 -0.0397191 0)
(0.0941904 -0.0337354 0)
(0.0890725 -0.0285008 0)
(0.0893716 -0.0207616 0)
(0.0919921 -0.0137317 0)
(0.0934338 -0.0102091 0)
(0.0931614 -0.00954179 0)
(0.0925518 -0.00953065 0)
(0.0928127 -0.00890121 0)
(0.094366 -0.00749285 0)
(0.0967452 -0.00578122 0)
(0.0993863 -0.0041366 0)
(0.101617 -0.00280821 0)
(0.103277 -0.00181846 0)
(0.10424 -0.00113478 0)
(0.104805 -0.000670769 0)
(0.105006 -0.000358452 0)
(0.105154 -0.000160197 0)
(0.10516 -2.65279e-05 0)
(0.10525 2.37805e-05 0)
(0.105239 6.21277e-05 0)
(0.105332 1.76674e-05 0)
(0.105321 1.53967e-05 0)
(0.105411 -8.10453e-05 0)
(0.147395 0.0466387 0)
(0.14041 0.046172 0)
(0.126311 0.0440656 0)
(0.124451 0.0359339 0)
(0.123487 0.0329502 0)
(0.133348 0.0266769 0)
(0.145382 0.0121781 0)
(0.151702 -0.00495984 0)
(0.153317 -0.0234598 0)
(0.153865 -0.0451585 0)
(0.150035 -0.06636 0)
(0.144483 -0.0763088 0)
(0.136622 -0.0730971 0)
(0.122188 -0.0640571 0)
(0.108795 -0.0545926 0)
(0.100971 -0.0464257 0)
(0.0986525 -0.0382506 0)
(0.0978941 -0.0308235 0)
(0.0956621 -0.0252793 0)
(0.0937932 -0.0204331 0)
(0.0943686 -0.0158248 0)
(0.09693 -0.0121922 0)
(0.0998701 -0.00989471 0)
(0.101752 -0.0085829 0)
(0.101987 -0.00791601 0)
(0.101242 -0.00741391 0)