/*--------------------------------*- C++ -*----------------------------------*\
| =========                 |                                                 |
| \\      /  F ield         | OpenFOAM: The Open Source CFD Toolbox           |
|  \\    /   O peration     | Version:  2112                                  |
|   \\  /    A nd           | Website:  www.openfoam.com                      |
|    \\/     M anipulation  |                                                 |
\*---------------------------------------------------------------------------*/
FoamFile
{
    version     2.0;
    format      ascii;
    arch        "LSB;label=32;scalar=64";
    class       volScalarField;
    location    "0.39";
    object      nut;
}
// * * * * * * * * * * * * * * * * * * * * * * * * * * * * * * * * * * * * * //

dimensions      [0 2 -1 0 0 0 0];

internalField   nonuniform List<scalar> 
1880
(
3.5396e-11
3.53787e-12
5.39313e-13
2.76532e-14
1.64522e-14
1.73963e-13
1.44392e-14
3.98867e-14
2.66042e-14
2.38801e-14
7.39747e-15
6.49517e-15
1.25769e-14
1.52972e-14
5.35206e-14
7.7771e-14
2.47951e-13
4.21101e-13
1.70219e-13
7.89298e-13
5.50001e-13
1.84228e-12
5.32899e-12
5.31729e-12
2.58761e-11
8.88408e-12
4.54429e-11
7.55544e-11
8.00137e-11
3.88433e-10
5.07678e-09
5.862e-09
1.02458e-09
3.56375e-10
1.78522e-11
4.54611e-11
7.04359e-12
5.80324e-12
3.87367e-12
1.00717e-12
4.35865e-12
1.31526e-12
1.81783e-11
9.35776e-12
1.0743e-10
2.75732e-11
1.59444e-10
6.69167e-11
6.383e-11
2.92458e-10
8.50417e-11
1.89596e-10
3.78659e-10
1.01076e-10
4.03417e-10
1.01279e-09
4.76698e-10
1.18642e-09
3.65794e-09
6.68852e-10
2.96639e-09
1.43504e-09
2.33189e-09
7.29133e-11
2.00922e-09
2.20555e-11
2.697e-09
2.46147e-09
2.00499e-09
1.02503e-10
3.2655e-09
8.74162e-11
8.93315e-11
3.54218e-09
9.84447e-11
2.95355e-09
2.25705e-09
1.17072e-09
4.19008e-09
4.22671e-09
9.54267e-10
8.0653e-09
2.74437e-09
1.48575e-09
1.40446e-08
3.23624e-09
4.59983e-09
1.84599e-08
8.92376e-09
9.76527e-09
3.03906e-12
8.41176e-10
1.48285e-08
2.33559e-09
3.72075e-09
1.8098e-09
9.93351e-10
2.81845e-11
6.4689e-09
1.72214e-09
2.33141e-08
2.79943e-09
6.59419e-09
2.92756e-09
5.54819e-09
3.20819e-09
2.12384e-08
2.16079e-09
9.02877e-09
5.54102e-09
3.8662e-09
9.98013e-09
7.61383e-09
8.42541e-09
1.35881e-08
1.47138e-08
1.79047e-08
1.87466e-08
2.77701e-08
2.45053e-08
1.21233e-09
6.30693e-10
4.24958e-09
3.40297e-10
1.92309e-09
8.2284e-10
3.12182e-10
9.35237e-10
2.03667e-09
2.71e-09
1.51091e-08
3.36373e-09
2.60855e-09
4.1952e-09
3.27019e-09
5.25437e-09
3.3695e-08
4.25545e-09
1.904e-08
5.40122e-09
6.70694e-11
8.02597e-09
2.73322e-09
8.42258e-09
7.73961e-09
1.35418e-08
1.11018e-08
2.15544e-08
1.80699e-08
2.83924e-08
4.40446e-10
2.8264e-09
1.46396e-09
1.07512e-09
4.01107e-10
1.50237e-09
6.40125e-10
3.33697e-10
3.40244e-10
3.64279e-10
5.22512e-09
7.36869e-10
2.27344e-10
1.60017e-10
9.25323e-10
2.12391e-09
4.54056e-10
3.42117e-09
1.8549e-09
5.70875e-09
4.4299e-09
6.44821e-09
6.98215e-09
1.03055e-08
1.02852e-08
1.28671e-08
1.31006e-08
1.56058e-08
1.95424e-08
2.1284e-08
1.06773e-09
2.93122e-09
2.93128e-09
2.74737e-10
1.77794e-09
4.27631e-10
9.62157e-10
4.59623e-10
8.31822e-10
8.20739e-10
4.52156e-10
6.90568e-10
1.07141e-09
4.85504e-10
2.75971e-09
1.73844e-09
2.87292e-09
2.15283e-09
4.04996e-09
4.2425e-09
4.73792e-09
5.52721e-09
7.27264e-09
7.35397e-09
9.87357e-09
1.12205e-08
1.19233e-08
1.54309e-08
1.68129e-08
2.06212e-08
6.89706e-10
2.54866e-09
1.70549e-09
2.58144e-10
1.43722e-09
5.72041e-10
1.57926e-09
1.2827e-10
1.53047e-09
1.24376e-09
2.11826e-09
1.90038e-09
2.4104e-09
1.45114e-09
4.11511e-09
3.51528e-09
4.08867e-09
3.6427e-09
5.58161e-09
5.57941e-09
5.95514e-09
6.25259e-09
8.28675e-09
8.39773e-09
1.05107e-08
1.10072e-08
1.31626e-08
1.40215e-08
1.79219e-08
1.77329e-08
5.93786e-10
1.92067e-09
1.05103e-09
3.81203e-10
1.04946e-09
7.91335e-10
1.6123e-09
7.52124e-10
1.95206e-09
1.34484e-09
3.09866e-09
2.43505e-09
3.14729e-09
2.45324e-09
4.45182e-09
3.2164e-09
4.22662e-09
3.22317e-09
5.36865e-09
5.43853e-09
6.1018e-09
6.31775e-09
8.16121e-09
8.1388e-09
9.94229e-09
1.10323e-08
1.24782e-08
1.36782e-08
1.62417e-08
1.73049e-08
4.44458e-10
1.4401e-09
8.92618e-10
5.50485e-10
1.33101e-09
1.13367e-09
1.82822e-09
1.10936e-09
2.2288e-09
2.38886e-09
3.71568e-09
3.04207e-09
3.36206e-09
2.79113e-09
4.38509e-09
3.75342e-09
4.45061e-09
3.89756e-09
5.7529e-09
5.91465e-09
6.49235e-09
6.57405e-09
8.33763e-09
8.43107e-09
1.00231e-08
1.08641e-08
1.27493e-08
1.32837e-08
1.613e-08
1.62399e-08
3.04433e-10
8.86386e-10
6.76008e-10
9.63684e-10
1.27232e-09
1.44639e-09
1.92986e-09
1.50105e-09
2.3595e-09
2.89549e-09
3.54235e-09
3.34884e-09
3.1607e-09
3.04518e-09
3.83413e-09
3.71357e-09
4.43762e-09
4.17195e-09
5.60436e-09
6.2471e-09
6.5228e-09
6.72352e-09
8.05824e-09
8.49856e-09
9.7812e-09
1.07842e-08
1.23323e-08
1.29832e-08
1.51672e-08
1.57622e-08
2.17507e-10
7.3598e-10
8.66831e-10
1.19595e-09
1.50616e-09
1.69067e-09
2.08445e-09
1.86524e-09
2.58893e-09
2.81835e-09
3.7311e-09
3.0069e-09
3.37764e-09
3.18433e-09
4.05833e-09
3.97955e-09
4.6691e-09
4.43945e-09
5.88363e-09
6.21339e-09
6.74511e-09
6.88792e-09
8.12856e-09
8.60174e-09
9.83735e-09
1.06072e-08
1.22775e-08
1.27695e-08
1.47e-08
1.52525e-08
9.34543e-11
6.11128e-10
8.92676e-10
1.26118e-09
1.53297e-09
1.81997e-09
2.11175e-09
2.00966e-09
2.53189e-09
3.02539e-09
3.1238e-09
3.1406e-09
3.38566e-09
3.39721e-09
3.85156e-09
4.29155e-09
4.77364e-09
4.71252e-09
5.65383e-09
6.47078e-09
6.79008e-09
7.05066e-09
7.9773e-09
8.70536e-09
9.69305e-09
1.05117e-08
1.18496e-08
1.25548e-08
1.40588e-08
1.47942e-08
3.47156e-11
5.41946e-10
8.91738e-10
1.45761e-09
1.66189e-09
1.91426e-09
2.20384e-09
2.18859e-09
2.6542e-09
2.87797e-09
3.29594e-09
3.15148e-09
3.57113e-09
3.70825e-09
4.15924e-09
4.46473e-09
4.97292e-09
4.92112e-09
5.92911e-09
6.44824e-09
6.97893e-09
7.30031e-09
8.13684e-09
8.77853e-09
9.75787e-09
1.04204e-08
1.17176e-08
1.24219e-08
1.37174e-08
1.44857e-08
4.55702e-12
2.10884e-10
6.66052e-10
9.55365e-10
1.49721e-09
1.93566e-09
2.04345e-09
2.04238e-09
2.43806e-09
2.80252e-09
2.79157e-09
3.09511e-09
3.59616e-09
3.6073e-09
3.99415e-09
4.63265e-09
4.93797e-09
4.94522e-09
5.58128e-09
6.59144e-09
7.04054e-09
7.28039e-09
7.98771e-09
8.80767e-09
9.56354e-09
1.02573e-08
1.13032e-08
1.21722e-08
1.3279e-08
1.39868e-08
5.51256e-11
1.02212e-09
1.06948e-09
1.47917e-09
1.60114e-09
1.86885e-09
1.99492e-09
2.19509e-09
2.4497e-09
2.74871e-09
3.06171e-09
3.20286e-09
3.50122e-09
3.75393e-09
4.10049e-09
4.63285e-09
4.96994e-09
5.15039e-09
5.72717e-09
6.5305e-09
6.98922e-09
7.5116e-09
8.18018e-09
8.84753e-09
9.56767e-09
1.01754e-08
1.1137e-08
1.20005e-08
1.30664e-08
1.38619e-08
6.80944e-12
1.00809e-12
2.77738e-10
6.27018e-10
1.1504e-09
1.46294e-09
1.22299e-09
1.28894e-09
1.69384e-09
2.1278e-09
2.15652e-09
2.84649e-09
3.31769e-09
3.38461e-09
3.80027e-09
4.63894e-09
4.7658e-09
5.06026e-09
5.57014e-09
6.52243e-09
6.83081e-09
7.17497e-09
7.86067e-09
8.68291e-09
9.23088e-09
9.81346e-09
1.05978e-08
1.14172e-08
1.23855e-08
1.30946e-08
2.03476e-09
2.75464e-09
1.58196e-09
1.56304e-09
1.91422e-09
2.28862e-09
3.07325e-09
3.69833e-09
3.15677e-09
2.78781e-09
1.8981e-09
1.36311e-09
6.62472e-10
3.78425e-10
1.10722e-10
6.6355e-11
3.51664e-11
3.16247e-11
1.51082e-12
7.27563e-14
1.29845e-13
2.54376e-12
1.13315e-12
5.38606e-12
1.32775e-11
3.57242e-11
4.59892e-11
1.19525e-10
2.46271e-10
6.25527e-10
5.03226e-09
5.50579e-09
1.1029e-09
1.43541e-10
2.58575e-11
4.88647e-12
1.13377e-12
3.77839e-14
7.34963e-13
3.55263e-13
3.45817e-13
1.10946e-12
1.11931e-12
1.12387e-12
2.13731e-12
1.86827e-12
1.50728e-12
2.75849e-12
6.36331e-12
7.18615e-12
4.32792e-12
4.52932e-12
7.03114e-12
7.86489e-12
8.72322e-12
9.38369e-12
8.57991e-12
6.80986e-12
5.12999e-12
3.60583e-12
3.45311e-11
4.59802e-12
2.70505e-13
1.25324e-14
6.21668e-14
2.82222e-14
4.41597e-15
2.79564e-16
9.18166e-17
2.17391e-16
5.50291e-16
4.40047e-15
1.43887e-15
7.59962e-16
1.10071e-15
8.21765e-15
1.6805e-14
1.70857e-14
5.75554e-15
3.32593e-15
1.72843e-14
9.34545e-14
1.33351e-13
6.81295e-14
1.86398e-14
9.48342e-15
2.06199e-14
7.12412e-14
1.21296e-13
1.07946e-13
3.32352e-09
3.12432e-10
8.9554e-10
2.19526e-10
8.40678e-12
7.59517e-11
8.51833e-12
4.03759e-11
1.80979e-10
1.59892e-09
8.7402e-09
1.42313e-08
4.32461e-09
2.3108e-08
5.06099e-09
1.24677e-08
1.4373e-09
5.52577e-08
9.25779e-10
5.43124e-08
2.73059e-08
5.01886e-08
1.03123e-08
2.52858e-08
5.25983e-08
6.14873e-08
8.04268e-09
7.45571e-08
6.9013e-08
4.99497e-08
3.40483e-08
4.07276e-08
4.16946e-08
2.15266e-08
3.80175e-08
4.64855e-08
2.42828e-08
1.06863e-08
4.77013e-08
4.24422e-08
3.26881e-08
3.21434e-08
3.53914e-08
3.04526e-08
3.10592e-08
3.92785e-08
4.1028e-08
2.23855e-08
3.90393e-08
3.99348e-08
3.66632e-08
2.71803e-08
3.13153e-08
2.80082e-08
2.87085e-08
3.76216e-08
3.73588e-08
3.2179e-08
3.62421e-08
3.0921e-08
2.75708e-08
2.39089e-08
2.703e-08
2.77843e-08
2.79711e-08
3.21159e-08
3.4647e-08
3.09266e-08
2.94536e-08
2.9735e-08
2.94895e-08
2.23462e-08
2.60203e-08
2.63365e-08
2.62975e-08
2.96088e-08
3.17987e-08
3.08914e-08
2.72162e-08
2.62305e-08
2.41738e-08
2.0846e-08
2.34671e-08
2.46164e-08
2.48137e-08
2.67051e-08
2.93788e-08
2.83621e-08
2.48917e-08
2.57333e-08
2.31828e-08
1.96454e-08
2.22358e-08
2.29981e-08
2.31724e-08
2.50649e-08
2.65807e-08
2.60603e-08
2.40798e-08
2.36024e-08
2.02421e-08
1.85813e-08
2.06644e-08
2.17068e-08
2.18235e-08
2.29061e-08
2.4541e-08
2.45295e-08
2.20237e-08
2.11371e-08
1.89205e-08
1.76647e-08
1.94998e-08
2.03128e-08
2.06479e-08
2.16827e-08
2.22838e-08
2.21301e-08
2.10015e-08
1.99908e-08
1.71419e-08
1.6793e-08
1.83873e-08
1.9201e-08
1.93362e-08
2.02199e-08
2.07282e-08
2.04645e-08
1.91687e-08
1.81485e-08
1.64892e-08
1.61323e-08
1.74239e-08
1.80764e-08
1.8396e-08
1.89101e-08
1.90309e-08
1.87417e-08
1.80891e-08
1.69661e-08
1.51619e-08
1.53558e-08
1.64606e-08
1.70961e-08
1.72118e-08
1.76914e-08
1.76495e-08
1.72628e-08
1.65532e-08
1.55791e-08
1.51451e-08
1.50087e-08
1.58338e-08
1.61812e-08
1.63682e-08
1.65567e-08
1.64432e-08
1.61078e-08
1.56251e-08
1.47185e-08
1.3843e-08
1.40189e-08
1.48584e-08
1.5108e-08
1.5328e-08
1.52673e-08
1.52976e-08
1.46516e-08
1.44148e-08
1.30401e-08
1.0543e-09
6.56471e-10
1.31153e-09
1.24549e-09
2.04465e-09
1.94871e-09
2.7409e-09
2.3684e-09
2.72356e-09
2.00416e-09
4.04851e-12
4.58162e-12
1.431e-12
6.39804e-13
3.65102e-14
1.57185e-12
4.59212e-12
1.04515e-11
1.47813e-11
1.59343e-11
1.17512e-13
2.63485e-14
6.50398e-15
2.52713e-16
7.09752e-15
3.47867e-14
5.45129e-14
9.21097e-14
8.10598e-14
5.10148e-14
7.51248e-08
2.65289e-08
1.06705e-09
6.51017e-08
4.69217e-08
2.36551e-08
7.35793e-09
1.61472e-09
5.60392e-10
2.10293e-10
1.3719e-10
1.0995e-10
1.95131e-10
4.11974e-10
1.08582e-09
5.64627e-09
1.98619e-08
1.026e-07
9.6885e-08
1.68802e-08
2.1202e-09
3.2008e-10
6.07229e-11
1.5193e-11
5.20254e-12
2.38421e-12
1.39891e-12
6.92539e-13
1.54461e-13
3.22438e-15
1.44286e-14
1.30377e-13
2.66348e-13
3.01334e-13
2.1414e-13
1.1371e-13
4.76007e-14
1.36754e-14
5.37063e-15
2.89567e-15
7.23437e-08
1.45578e-07
4.53458e-11
2.29237e-08
6.68257e-08
1.66874e-07
1.17382e-07
3.16146e-09
7.4741e-07
5.8754e-07
1.54288e-08
1.17332e-10
8.60319e-09
1.68782e-08
2.27895e-08
5.19384e-08
6.7151e-08
8.86223e-08
9.35766e-08
8.49864e-08
6.63784e-08
4.4525e-08
2.62717e-08
1.39478e-08
6.94707e-09
3.52026e-09
1.90944e-09
1.02883e-09
4.34738e-10
1.27241e-10
1.93653e-11
7.02016e-13
7.65001e-13
3.81008e-12
6.27138e-12
5.46851e-12
3.5637e-12
1.59823e-12
6.44942e-13
1.44978e-13
9.47748e-09
3.392e-07
4.50023e-07
5.51201e-08
1.22499e-07
1.5169e-09
1.26862e-07
7.58949e-07
1.13401e-06
5.50399e-07
7.3684e-08
2.843e-09
1.31618e-15
1.00398e-09
1.40158e-09
4.6844e-09
1.85496e-08
4.31058e-08
6.66313e-08
7.82501e-08
7.53277e-08
6.07184e-08
4.52564e-08
3.51052e-08
2.83769e-08
2.25855e-08
1.86926e-08
1.79445e-08
1.78505e-08
1.49215e-08
7.08635e-09
8.65987e-10
2.37407e-12
7.22722e-11
1.81817e-10
1.61188e-10
9.14102e-11
3.36254e-11
1.00016e-11
8.48461e-13
5.22072e-08
1.98033e-08
2.00381e-08
1.73465e-07
2.11634e-08
9.66936e-08
3.73036e-07
1.03058e-06
1.40496e-06
9.07712e-07
2.05258e-07
9.09809e-09
2.94701e-11
1.84879e-10
3.50391e-10
7.60669e-10
5.61998e-09
2.73305e-08
5.21413e-08
6.32317e-08
6.9531e-08
6.26427e-08
4.67904e-08
3.45277e-08
2.94151e-08
2.50274e-08
1.96506e-08
1.47175e-08
1.02081e-08
2.71858e-09
4.27915e-10
2.85215e-10
6.85009e-10
2.84709e-09
2.0199e-10
9.53479e-09
4.89169e-09
1.80762e-09
7.51137e-10
7.98955e-11
6.03327e-08
2.46973e-08
7.41887e-08
1.53442e-07
3.59849e-10
5.27293e-07
1.05503e-06
1.55552e-06
1.77337e-06
1.25542e-06
4.54664e-07
5.19318e-08
2.43936e-09
1.08569e-11
3.45608e-12
7.22959e-11
1.10958e-09
1.69073e-08
6.11184e-08
7.00653e-08
6.21712e-08
5.44271e-08
3.94822e-08
2.74728e-08
1.9273e-08
1.1006e-08
4.40818e-09
1.91738e-09
2.712e-10
4.03057e-08
1.43355e-08
1.0457e-09
6.90859e-11
4.53915e-15
3.92588e-11
2.69044e-10
9.19657e-10
1.74184e-09
2.35799e-09
1.59059e-08
8.37754e-07
2.62932e-08
1.341e-07
1.33603e-07
2.63803e-13
1.38788e-07
3.86434e-07
9.35517e-07
1.38101e-06
1.20143e-06
5.34515e-07
9.71645e-08
1.32599e-08
2.39025e-09
9.86736e-10
5.22733e-11
6.31906e-10
7.85161e-09
4.99609e-08
7.65319e-08
6.15445e-08
4.54237e-08
2.73925e-08
1.6511e-08
1.47259e-08
1.01337e-08
1.61427e-09
9.70606e-13
7.06952e-10
6.27897e-09
1.67942e-11
2.74187e-08
2.60106e-10
8.31182e-12
1.33358e-10
3.11136e-10
4.74451e-10
4.96995e-10
6.67275e-10
5.47937e-10
2.79921e-08
1.06803e-07
2.05456e-07
2.43124e-07
3.02376e-08
1.75793e-07
9.701e-07
1.64208e-06
1.84991e-06
1.56113e-06
8.45657e-07
2.52391e-07
6.87075e-08
1.48221e-08
2.01768e-09
8.55568e-11
3.34162e-09
2.77719e-08
5.74546e-08
6.38088e-08
3.15505e-08
3.27103e-08
2.94005e-08
2.34302e-08
2.0414e-08
1.55735e-08
1.30865e-08
6.63572e-09
9.44443e-10
1.40734e-09
7.19572e-09
3.13129e-10
2.96679e-10
9.21222e-10
1.86594e-09
7.77107e-09
5.81755e-09
3.48081e-09
2.39389e-09
1.10268e-09
1.55364e-08
2.53039e-08
1.35731e-09
1.25906e-07
1.46426e-07
2.18058e-08
4.83859e-08
1.11954e-06
1.77218e-06
1.75404e-06
1.33267e-06
5.89841e-07
1.93745e-07
7.54801e-08
9.56037e-09
1.69025e-10
2.62281e-08
6.70336e-08
6.30303e-08
5.21022e-08
1.50691e-08
7.34129e-09
2.57528e-08
2.43598e-08
2.04346e-08
1.71916e-08
1.38455e-08
1.48253e-08
1.68954e-08
1.61829e-08
1.47358e-08
6.21526e-09
1.27791e-11
1.20862e-09
1.50939e-09
8.4528e-10
6.50193e-12
8.87665e-11
4.30171e-09
5.84865e-09
9.83352e-08
5.15417e-09
5.03684e-09
6.97045e-12
1.88311e-09
8.92395e-09
1.03569e-07
7.17345e-07
1.4355e-06
1.63702e-06
1.35079e-06
7.38891e-07
2.99336e-07
9.30723e-08
1.19682e-09
2.60325e-08
6.98964e-08
6.08513e-08
4.73275e-08
4.88538e-08
4.38146e-08
3.5069e-08
3.26696e-08
3.05634e-08
2.62122e-08
1.93785e-08
1.46961e-08
1.38756e-08
1.39067e-08
1.23747e-08
8.63695e-09
5.2066e-09
4.046e-09
2.64124e-09
9.11349e-10
2.18538e-11
8.14612e-11
1.86694e-10
8.9761e-12
1.63116e-10
3.77528e-09
1.99844e-08
8.08771e-09
6.31492e-09
1.53496e-09
6.1796e-08
3.05756e-07
9.65397e-07
1.35323e-06
1.493e-06
1.43161e-06
9.5064e-07
2.78155e-07
1.22614e-09
5.96538e-08
6.93992e-08
5.43508e-08
4.00005e-08
4.54308e-08
4.35958e-08
3.72382e-08
2.67123e-08
1.7961e-08
2.4054e-08
1.84887e-08
7.5823e-09
1.09761e-08
1.11178e-08
1.01701e-08
1.23838e-08
1.22267e-08
2.22417e-09
1.67389e-11
8.51045e-09
3.73488e-11
1.61796e-11
1.55169e-10
8.59892e-11
1.67814e-10
5.46215e-10
3.47235e-08
2.38049e-08
5.1232e-08
2.64237e-09
1.49026e-09
8.85161e-08
3.26666e-07
7.19874e-07
8.63045e-07
8.6946e-07
6.67609e-07
6.74477e-10
4.70685e-08
6.76488e-08
7.55343e-08
6.40479e-08
5.84148e-08
4.99786e-08
4.02817e-08
3.38399e-08
3.15523e-08
2.99867e-08
2.67431e-08
2.57316e-08
1.6436e-08
3.40559e-10
9.51606e-09
3.52043e-09
5.24081e-09
4.32892e-09
5.9703e-10
6.26705e-10
4.84517e-08
8.8885e-09
1.09508e-08
6.10166e-09
2.01586e-11
2.61345e-11
7.41481e-12
2.41137e-11
3.37438e-08
4.31464e-08
4.54896e-08
4.65546e-08
4.7038e-08
2.79887e-08
2.36127e-08
2.93526e-08
2.35913e-08
1.90806e-08
4.99168e-08
7.08323e-08
7.30704e-08
6.34367e-08
5.76874e-08
5.48787e-08
4.57228e-08
4.30784e-08
4.12655e-08
3.36237e-08
2.8369e-08
1.83257e-08
1.90085e-09
5.31837e-09
1.96098e-08
1.80775e-08
1.63552e-08
1.34919e-08
3.47546e-09
2.28554e-09
7.19151e-09
6.56138e-08
1.22301e-07
6.6807e-08
1.04835e-09
6.95738e-09
1.47743e-08
1.18588e-08
8.10414e-11
4.21863e-09
2.68613e-08
2.82787e-08
4.15904e-08
4.0035e-08
4.30454e-08
4.61365e-08
5.09377e-08
4.8379e-08
5.42644e-08
6.11715e-08
6.089e-08
6.36805e-08
6.03824e-08
5.51245e-08
4.76589e-08
4.88925e-08
4.6999e-08
3.57644e-08
3.37988e-08
3.20136e-08
2.65702e-08
2.6834e-08
2.48303e-08
2.19474e-08
2.04369e-08
1.53065e-08
9.42493e-09
9.62241e-09
1.11488e-08
1.06491e-08
1.152e-08
1.10073e-08
8.15867e-09
5.61905e-09
5.68931e-09
2.59623e-09
2.0623e-10
3.85499e-09
5.84784e-10
3.39184e-11
3.32307e-08
2.83541e-08
3.58065e-08
3.11151e-08
3.70916e-08
4.16951e-08
4.6265e-08
4.43131e-08
4.91385e-08
5.2087e-08
4.6159e-08
4.98841e-08
4.93994e-08
4.95439e-08
4.46273e-08
3.6648e-08
4.12947e-08
3.86049e-08
3.00626e-08
2.83364e-08
2.64589e-08
2.4818e-08
2.32125e-08
1.94282e-08
1.71816e-08
1.32095e-08
6.35406e-09
7.35795e-09
7.39466e-09
3.13921e-10
5.61637e-09
3.73696e-09
5.66131e-09
8.17726e-10
3.84746e-08
2.47846e-09
4.88752e-10
2.8264e-11
2.01984e-09
1.09749e-08
3.14437e-08
2.54233e-08
2.72455e-08
2.84675e-08
3.24798e-08
3.80086e-08
4.04281e-08
4.34337e-08
4.38423e-08
4.54133e-08
3.9265e-08
3.8348e-08
4.25034e-08
4.31751e-08
4.04152e-08
3.44487e-08
3.02338e-08
3.47246e-08
3.06489e-08
2.30053e-08
2.45945e-08
2.50045e-08
1.84179e-08
1.46424e-08
1.60807e-08
1.48841e-08
7.42905e-09
1.24514e-09
7.9932e-09
4.00165e-09
2.51165e-09
7.38486e-09
1.52165e-09
9.63891e-11
1.97461e-09
2.59055e-09
2.38702e-09
9.10564e-10
3.37679e-09
3.39368e-08
3.03382e-08
2.63515e-08
2.47854e-08
2.52071e-08
3.00305e-08
3.34836e-08
3.49289e-08
3.83693e-08
3.82515e-08
3.68991e-08
3.48318e-08
3.23848e-08
3.37848e-08
3.43676e-08
3.41019e-08
3.44793e-08
2.77698e-08
2.34886e-08
2.68927e-08
2.68202e-08
2.05917e-08
2.08519e-08
1.81032e-08
1.6399e-08
1.37904e-08
1.52674e-08
1.41386e-08
1.1009e-08
9.99562e-09
8.45272e-09
6.47076e-09
7.75423e-09
6.60752e-09
2.37511e-08
2.80264e-11
4.6693e-09
3.7744e-10
1.87778e-08
7.05895e-11
6.2406e-10
2.56105e-08
2.39086e-08
2.19895e-08
2.30759e-08
2.72801e-08
3.038e-08
3.03092e-08
3.09787e-08
3.10269e-08
3.1086e-08
2.96857e-08
2.97915e-08
2.78428e-08
2.90021e-08
2.91182e-08
2.85568e-08
2.7526e-08
2.51136e-08
2.06622e-08
2.43908e-08
2.18687e-08
1.89314e-08
1.81939e-08
1.93108e-08
1.70749e-08
1.28075e-08
1.18041e-08
1.00251e-08
8.82125e-09
6.28147e-09
5.0338e-10
6.34068e-10
4.98898e-09
4.05546e-10
2.59186e-08
9.61702e-10
2.7071e-09
1.63825e-10
3.53186e-10
1.45155e-09
2.35646e-08
2.26007e-08
2.04974e-08
2.1053e-08
2.35283e-08
2.62245e-08
2.70495e-08
2.64625e-08
2.63383e-08
2.49003e-08
2.54443e-08
2.58598e-08
2.50919e-08
2.40808e-08
2.53455e-08
2.33084e-08
2.24641e-08
2.46484e-08
2.25258e-08
1.8927e-08
1.96441e-08
2.01075e-08
1.78115e-08
1.53817e-08
1.46747e-08
1.23821e-08
1.157e-08
9.24038e-09
8.79305e-09
9.10359e-09
6.07399e-09
3.46199e-09
3.76872e-09
2.78071e-09
1.87334e-09
2.61647e-09
3.89491e-09
3.48913e-09
2.72689e-09
1.5064e-09
2.06028e-08
1.9817e-08
1.90445e-08
1.94398e-08
2.06765e-08
2.2152e-08
2.31238e-08
2.25885e-08
2.18828e-08
2.24387e-08
2.14289e-08
2.10276e-08
2.26514e-08
2.20546e-08
2.01824e-08
2.17723e-08
2.13636e-08
1.93702e-08
2.05545e-08
2.05076e-08
1.87394e-08
1.79027e-08
1.77261e-08
1.58912e-08
1.46383e-08
1.37223e-08
1.32628e-08
1.11227e-08
8.5467e-09
7.52749e-09
7.37386e-09
7.06122e-09
6.12322e-09
4.1954e-09
2.9374e-09
2.10168e-09
1.91298e-09
1.58815e-09
2.76926e-09
2.90953e-09
1.85672e-08
1.83694e-08
1.73062e-08
1.73771e-08
1.84604e-08
1.89836e-08
1.91528e-08
1.94759e-08
1.89126e-08
1.84908e-08
1.89215e-08
1.87967e-08
1.80175e-08
1.90254e-08
1.8761e-08
1.76063e-08
1.87244e-08
1.86369e-08
1.78318e-08
1.83697e-08
1.85678e-08
1.69557e-08
1.59776e-08
1.58302e-08
1.49493e-08
1.26873e-08
1.07901e-08
1.00792e-08
9.73903e-09
8.67176e-09
6.87759e-09
4.82661e-09
3.59433e-09
3.01343e-09
3.09687e-09
3.17447e-09
3.69837e-09
3.46476e-09
3.57554e-09
2.31707e-09
1.68395e-08
1.64608e-08
1.59349e-08
1.58259e-08
1.59703e-08
1.65401e-08
1.65152e-08
1.60223e-08
1.63542e-08
1.62446e-08
1.57761e-08
1.64537e-08
1.63012e-08
1.54565e-08
1.63965e-08
1.65084e-08
1.57627e-08
1.66661e-08
1.76232e-08
1.69574e-08
1.66509e-08
1.69625e-08
1.63283e-08
1.47311e-08
1.35579e-08
1.28813e-08
1.18666e-08
1.0172e-08
8.49348e-09
7.24623e-09
6.59626e-09
5.8386e-09
5.1156e-09
3.97236e-09
3.36578e-09
2.59578e-09
2.64452e-09
2.28042e-09
2.67657e-09
2.45766e-09
1.52213e-08
1.49221e-08
1.43286e-08
1.40646e-08
1.41169e-08
1.3989e-08
1.39651e-08
1.39679e-08
1.35793e-08
1.38222e-08
1.42007e-08
1.37846e-08
1.40461e-08
1.43693e-08
1.36182e-08
1.37692e-08
1.46875e-08
1.44948e-08
1.44085e-08
1.4987e-08
1.48009e-08
1.36251e-08
1.26708e-08
1.1853e-08
1.0618e-08
8.83466e-09
7.31155e-09
6.26257e-09
5.57975e-09
4.66189e-09
3.62002e-09
2.5306e-09
1.85297e-09
1.497e-09
1.69019e-09
1.88263e-09
2.408e-09
2.22588e-09
2.44594e-09
1.67949e-09
1.42184e-08
1.3802e-08
1.31943e-08
1.27554e-08
1.25131e-08
1.24157e-08
1.22105e-08
1.20935e-08
1.23446e-08
1.246e-08
1.2668e-08
1.30456e-08
1.27071e-08
1.20535e-08
1.1555e-08
1.01257e-08
8.24573e-09
6.89099e-09
5.4028e-09
3.53465e-09
2.2933e-09
1.52183e-09
8.85334e-10
3.86094e-10
1.85074e-10
1.2016e-10
9.97056e-11
6.06679e-11
3.77448e-11
1.89781e-11
2.72884e-11
4.73389e-11
1.19229e-10
1.82328e-10
2.77555e-10
2.96874e-10
3.13768e-10
2.66864e-10
2.45587e-10
2.05398e-10
1.2679e-08
1.23754e-08
1.18148e-08
1.12877e-08
1.09505e-08
1.07367e-08
1.05933e-08
1.05532e-08
1.04809e-08
1.03867e-08
1.00403e-08
8.97862e-09
7.15711e-09
4.83175e-09
2.39861e-09
6.78667e-10
5.97826e-11
2.84741e-13
8.16072e-11
3.18903e-10
5.42903e-10
6.83481e-10
7.09195e-10
6.00439e-10
4.1238e-10
2.77361e-10
1.68714e-10
8.18532e-11
2.62776e-11
6.19259e-12
9.07072e-13
1.20753e-13
6.0327e-13
2.66368e-12
8.86568e-12
1.69591e-11
3.08273e-11
3.10126e-11
3.50047e-11
1.75291e-11
1.94108e-09
1.8415e-09
1.76864e-09
1.8032e-09
1.91535e-09
2.04083e-09
2.14398e-09
2.21609e-09
2.17853e-09
2.01757e-09
1.72975e-09
1.29081e-09
7.6364e-10
3.31789e-10
8.07948e-11
2.3273e-12
8.37383e-12
8.31433e-11
2.1655e-10
3.39811e-10
3.55843e-10
2.81756e-10
2.06349e-10
1.55126e-10
1.0255e-10
5.55004e-11
2.26477e-11
8.1774e-12
2.48995e-12
7.26711e-13
7.86343e-14
8.87779e-14
8.7822e-13
2.15008e-12
3.79245e-12
3.81488e-12
3.55293e-12
2.32876e-12
1.62686e-12
7.44578e-13
1.68006e-11
1.59587e-11
1.81516e-11
2.39142e-11
3.28562e-11
4.19835e-11
5.08331e-11
6.17597e-11
7.07457e-11
7.33687e-11
7.00402e-11
5.85887e-11
3.71438e-11
1.65553e-11
4.20512e-12
2.33288e-13
2.38612e-12
1.41732e-11
3.12467e-11
4.66213e-11
5.20908e-11
4.29281e-11
2.75874e-11
1.5785e-11
7.73461e-12
3.16789e-12
8.88801e-13
1.00275e-13
4.35776e-16
3.15691e-14
1.77008e-13
3.44165e-13
5.67952e-13
6.59281e-13
7.5513e-13
6.4081e-13
5.95419e-13
3.62452e-13
2.75465e-13
1.09561e-13
3.9425e-14
1.91496e-14
3.38956e-14
6.93588e-14
1.28569e-13
2.22331e-13
3.44496e-13
4.98982e-13
6.98831e-13
9.05266e-13
1.00816e-12
9.69024e-13
8.02481e-13
3.90175e-13
4.81105e-14
1.02825e-13
1.02029e-12
2.96766e-12
4.23168e-12
3.32651e-12
1.35948e-12
2.9883e-13
2.59982e-14
1.85651e-15
3.81721e-14
1.02441e-13
1.68369e-13
1.83769e-13
1.65949e-13
1.21071e-13
8.50693e-14
5.43113e-14
3.38839e-14
1.80575e-14
9.04961e-15
3.2229e-15
1.42761e-15
2.53362e-16
4.82163e-16
2.86654e-15
)
;

boundaryField
{
    inlet
    {
        type            calculated;
        value           nonuniform List<scalar> 
20
(
1.74229e-34
3.05864e-32
8.02967e-33
4.04728e-33
5.03541e-33
1.52077e-33
2.74006e-33
2.93105e-34
4.13917e-34
4.8688e-34
3.44004e-34
2.0888e-34
9.65763e-35
1.44925e-35
1.53486e-36
7.09112e-35
4.11477e-35
5.70796e-33
6.10355e-33
1.47353e-34
)
;
    }
    outlet
    {
        type            calculated;
        value           nonuniform List<scalar> 
27
(
2.92942e-32
2.02546e-36
7.85503e-33
1.44492e-32
1.99994e-32
2.64567e-33
4.92679e-35
2.89468e-36
1.24456e-32
8.90092e-33
1.21051e-32
1.53524e-32
1.17052e-32
1.34175e-32
9.7358e-33
3.73352e-33
2.24665e-35
1.19542e-36
1.09324e-35
1.53628e-36
2.06427e-36
4.02089e-36
2.44096e-38
5.60211e-36
1.62402e-34
6.60397e-33
2.73803e-32
)
;
    }
    lowerWall
    {
        type            fixedValue;
        value           uniform 0;
    }
    upperWall
    {
        type            fixedValue;
        value           uniform 0;
    }
    defaultFaces
    {
        type            empty;
    }
}


// ************************************************************************* //
