/*--------------------------------*- C++ -*----------------------------------*\
| =========                 |                                                 |
| \\      /  F ield         | OpenFOAM: The Open Source CFD Toolbox           |
|  \\    /   O peration     | Version:  2112                                  |
|   \\  /    A nd           | Website:  www.openfoam.com                      |
|    \\/     M anipulation  |                                                 |
\*---------------------------------------------------------------------------*/
FoamFile
{
    version     2.0;
    format      ascii;
    arch        "LSB;label=32;scalar=64";
    class       volScalarField;
    location    "0.39";
    object      p;
}
// * * * * * * * * * * * * * * * * * * * * * * * * * * * * * * * * * * * * * //

dimensions      [0 2 -2 0 0 0 0];

internalField   nonuniform List<scalar> 
1880
(
0.00315253
0.00301961
0.00292729
0.00287837
0.00284916
0.0028293
0.00280948
0.00279239
0.00277654
0.00276345
0.00275526
0.0027486
0.00274622
0.00274571
0.00275268
0.00275822
0.0027754
0.00279438
0.0028182
0.00285887
0.00289367
0.00294941
0.00301348
0.00307598
0.00316099
0.00324552
0.00332814
0.00341543
0.0035257
0.00351528
0.00297236
0.00294181
0.00290166
0.00286403
0.00283517
0.00281359
0.00279578
0.00278128
0.00276727
0.00275508
0.00274544
0.00273971
0.00273247
0.00273637
0.0027357
0.00274588
0.00275488
0.0027761
0.00279504
0.00283103
0.0028607
0.00291097
0.00296887
0.00302426
0.0031011
0.00317527
0.00324016
0.00334536
0.00342743
0.00351208
0.00293949
0.00291913
0.00288959
0.00285726
0.00282958
0.00280706
0.00278806
0.00277368
0.00275988
0.002747
0.00273757
0.0027294
0.00272183
0.00272095
0.00272012
0.00272624
0.00273107
0.0027479
0.00276092
0.00278853
0.00281187
0.00284835
0.00289433
0.00292989
0.0029906
0.00304306
0.00309232
0.00315556
0.00320714
0.00323552
0.00288243
0.00286948
0.00285342
0.00283248
0.00281135
0.00279185
0.00277261
0.00275979
0.00274464
0.0027335
0.00272182
0.002714
0.00270413
0.00269991
0.00269795
0.00269733
0.0027009
0.00270704
0.0027202
0.00273375
0.00275072
0.0027747
0.00280289
0.00282684
0.00286566
0.00289062
0.00291752
0.00294643
0.00295431
0.0029498
0.0028542
0.00284373
0.00283205
0.00281701
0.00279945
0.00278144
0.00276237
0.00274873
0.00273318
0.00272056
0.00270781
0.00269863
0.0026863
0.00267919
0.0026737
0.00266962
0.00266731
0.00266834
0.00267442
0.00267855
0.00268653
0.00269737
0.0027112
0.00272258
0.00273412
0.00274158
0.00274242
0.00273806
0.00271455
0.0026794
0.00282667
0.00281716
0.00280757
0.00279638
0.00278189
0.00276607
0.00274798
0.00273396
0.00271854
0.00270374
0.00269113
0.00267884
0.00266602
0.00265433
0.00264703
0.00263803
0.0026305
0.00262525
0.00262448
0.00262066
0.00261789
0.00261707
0.00261786
0.00261199
0.00260667
0.00259374
0.00257159
0.0025411
0.00249287
0.0024234
0.00280565
0.00279723
0.00278892
0.00278002
0.00276736
0.00275309
0.00273542
0.0027211
0.00270484
0.00268853
0.00267437
0.00265996
0.00264493
0.00262988
0.00261924
0.00260595
0.00259273
0.00258179
0.00257347
0.00256201
0.00254903
0.00253752
0.00252479
0.00250627
0.00248318
0.0024521
0.00241093
0.00235848
0.00228574
0.00219581
0.0027881
0.00278087
0.0027731
0.00276498
0.00275342
0.00273947
0.00272248
0.00270692
0.00269063
0.00267197
0.00265674
0.00263994
0.00262231
0.00260451
0.00258976
0.00257247
0.00255415
0.00253677
0.00252186
0.00250244
0.00248068
0.00245848
0.0024344
0.00240306
0.00236516
0.00231851
0.00226115
0.00218914
0.00210098
0.00199222
0.00277416
0.00276795
0.00276028
0.00275248
0.00274114
0.00272735
0.00271026
0.00269381
0.00267675
0.0026561
0.00263937
0.00262013
0.00259989
0.00257911
0.0025603
0.00253937
0.00251546
0.00249243
0.00247104
0.00244421
0.00241416
0.00238234
0.00234749
0.00230527
0.00225436
0.00219416
0.00212292
0.00203676
0.00193389
0.00181157
0.00276362
0.00275819
0.00275059
0.00274235
0.00273098
0.00271647
0.00269915
0.00268142
0.00266328
0.00264092
0.00262203
0.00260089
0.00257751
0.00255388
0.00253134
0.00250616
0.00247764
0.00244886
0.0024215
0.00238793
0.00234991
0.00230954
0.00226548
0.00221318
0.0021514
0.00207948
0.00199725
0.00189907
0.00178526
0.00165291
0.00275643
0.00275171
0.00274388
0.00273493
0.00272286
0.00270736
0.00268926
0.00267013
0.00265058
0.00262641
0.00260537
0.00258226
0.00255576
0.00252938
0.00250307
0.00247406
0.00244098
0.00240677
0.00237412
0.00233424
0.00228884
0.00224113
0.00218865
0.00212766
0.00205674
0.00197506
0.00188354
0.00177657
0.00165386
0.00151402
0.00275295
0.00274848
0.00274034
0.00273028
0.0027172
0.0027003
0.00268097
0.00266042
0.00263902
0.00261334
0.00258988
0.00256487
0.00253541
0.00250597
0.00247652
0.00244348
0.00240616
0.00236725
0.00232941
0.00228407
0.00223195
0.00217744
0.00211798
0.00204933
0.00197063
0.001881
0.0017821
0.00166832
0.00153881
0.00139367
0.00275333
0.0027488
0.00273983
0.00272816
0.00271345
0.00269468
0.00267369
0.00265138
0.00262808
0.00260086
0.00257521
0.00254829
0.00251604
0.00248373
0.0024513
0.00241444
0.00237325
0.00233011
0.00228755
0.00223738
0.00217913
0.00211885
0.0020535
0.00197824
0.00189307
0.00179712
0.001692
0.00157311
0.00143865
0.0012893
0.00275841
0.00275365
0.00274381
0.00273036
0.00271364
0.00269275
0.00266978
0.00264566
0.00262018
0.00259129
0.00256332
0.00253406
0.00249924
0.00246392
0.0024286
0.00238817
0.00234323
0.00229654
0.00224947
0.00219473
0.00213133
0.00206591
0.00199563
0.00191484
0.00182416
0.00172325
0.00161323
0.00149047
0.00135239
0.00120029
0.00276809
0.00276199
0.00274992
0.00273336
0.00271339
0.00268968
0.00266431
0.00263832
0.00261092
0.00258062
0.00255081
0.00251958
0.00248261
0.0024448
0.002407
0.0023635
0.0023154
0.00226573
0.00221462
0.00215576
0.00208812
0.00201843
0.00194402
0.00185854
0.00176318
0.00165844
0.00154461
0.00141892
0.0012785
0.00112418
0.00278692
0.0027795
0.00276459
0.00274393
0.00271986
0.00269284
0.0026649
0.002637
0.00260775
0.00257594
0.00254409
0.00251038
0.00247107
0.00243052
0.00238976
0.00234318
0.00229203
0.00223957
0.00218453
0.00212162
0.00205062
0.00197734
0.0018992
0.00180981
0.00171065
0.00160299
0.00148618
0.00135794
0.00121594
0.00106127
0.00280747
0.00279577
0.00277513
0.0027488
0.00272048
0.00269079
0.00266106
0.00263192
0.00260122
0.00256794
0.00253416
0.00249808
0.00245685
0.0024144
0.00237144
0.00232262
0.00226938
0.00221489
0.00215671
0.00209054
0.00201721
0.00194099
0.00185929
0.00176677
0.001665
0.00155547
0.00143678
0.00130676
0.00116334
0.0010068
0.00286064
0.00283868
0.00280416
0.00276636
0.00273106
0.00269769
0.00266614
0.00263543
0.00260274
0.00256745
0.0025314
0.00249289
0.00245012
0.00240608
0.00236083
0.00231015
0.00225515
0.00219811
0.00213629
0.00206691
0.00199166
0.00191262
0.00182733
0.00173216
0.00162827
0.00151676
0.00139621
0.00126487
0.00112189
0.000967364
0.0028895
0.00285533
0.00281024
0.00276729
0.00273008
0.00269669
0.00266477
0.00263278
0.0025984
0.00256192
0.00252429
0.00248371
0.00244004
0.00239508
0.0023475
0.00229463
0.00223794
0.00217892
0.00211451
0.00204319
0.0019667
0.00188489
0.00179656
0.00170091
0.00159732
0.00148528
0.00136318
0.00122974
0.00108492
0.000928979
0.00306903
0.0029297
0.00283244
0.00277796
0.00274228
0.00270875
0.00267416
0.0026386
0.00260138
0.00256338
0.00252466
0.00248351
0.00243974
0.00239373
0.0023445
0.00229123
0.0022341
0.00217318
0.0021069
0.00203506
0.00195804
0.00187506
0.00178513
0.00168808
0.00158304
0.00146965
0.00134706
0.00121476
0.00107243
0.000919976
0.00367099
0.00365218
0.00326946
0.00292251
0.0023016
0.00172662
0.000926345
5.76413e-05
-0.00118522
-0.00274753
0.00363293
0.00343571
0.00292452
0.00251699
0.00186287
0.0012291
0.000452592
-0.000521484
-0.00157954
-0.00295388
0.00326993
0.00304401
0.00256319
0.00222031
0.00159742
0.00105635
0.000289338
-0.000511894
-0.00151778
-0.00250244
0.00295662
0.00270439
0.00228311
0.00184592
0.00132986
0.000703182
2.87326e-05
-0.000772623
-0.0016394
-0.00250181
0.00262483
0.00237688
0.00195839
0.00157143
0.00107693
0.00053429
-9.60894e-05
-0.000806946
-0.00159912
-0.00233429
0.00234913
0.00208584
0.0017308
0.00131318
0.00087799
0.000330273
-0.000247415
-0.000900805
-0.00160975
-0.00226578
0.00209312
0.0018438
0.00149407
0.00110555
0.000690066
0.00019695
-0.000339972
-0.000932247
-0.00156541
-0.00215385
0.00187392
0.00162525
0.00130556
0.000926906
0.00053864
7.84763e-05
-0.000421746
-0.000966515
-0.00153196
-0.0020694
0.00167731
0.00144119
0.00113313
0.000778464
0.000407769
-1.32542e-05
-0.000478605
-0.000981716
-0.00148543
-0.00197108
0.00150896
0.00128081
0.000989694
0.00065396
0.000302887
-8.89578e-05
-0.000519683
-0.000983803
-0.00143948
-0.00188324
0.00136155
0.00114228
0.000864937
0.000548677
0.000215423
-0.000150197
-0.000549499
-0.000976447
-0.00139327
-0.00179892
0.00123638
0.00102514
0.000762126
0.000463135
0.00014746
-0.000196174
-0.00056782
-0.000960652
-0.00134457
-0.00171907
0.00112769
0.000922815
0.00067255
0.000389683
8.99778e-05
-0.000233592
-0.00058046
-0.000942943
-0.00129908
-0.0016466
0.00103744
0.000839559
0.000601786
0.000333574
4.85249e-05
-0.00025746
-0.000582704
-0.000919617
-0.00125215
-0.00157793
0.000958477
0.000764598
0.000537334
0.000282654
1.13437e-05
-0.000278343
-0.000583884
-0.000898504
-0.00121066
-0.00151721
0.000896809
0.000709047
0.000491837
0.000249076
-1.02772e-05
-0.000286242
-0.000575626
-0.000872708
-0.00116874
-0.00146056
0.00083965
0.00065392
0.000444961
0.000213822
-3.31209e-05
-0.000295182
-0.000569167
-0.000850662
-0.00113259
-0.00141155
0.000802546
0.000621422
0.000419749
0.000197458
-4.03177e-05
-0.000292368
-0.000555367
-0.000825988
-0.00109813
-0.00136798
0.000762414
0.000582781
0.000388137
0.00017672
-4.92676e-05
-0.000289417
-0.000540781
-0.000801295
-0.00106569
-0.00132875
0.000756552
0.000577904
0.000384491
0.000175946
-4.67391e-05
-0.000283375
-0.000530946
-0.000788209
-0.0010498
-0.00131303
-0.00548862
-0.00582965
-0.00592617
-0.00604431
-0.00622222
-0.00750157
-0.00982361
-0.0122253
-0.0136347
-0.0137948
-0.0127358
-0.0108416
-0.00854022
-0.0060906
-0.00378067
-0.00161151
0.000203674
0.00155352
0.00241606
0.00276555
0.00279281
0.00261922
0.00236175
0.00208678
0.00182584
0.0015913
0.00138464
0.00120024
0.00103195
0.000872962
0.000722344
0.000581373
0.000453876
0.000344106
0.00025354
0.000181335
0.000124558
7.95441e-05
4.33893e-05
1.26978e-05
-0.0056312
-0.0059517
-0.00603519
-0.00590435
-0.00661831
-0.00832884
-0.0108012
-0.013164
-0.014475
-0.0144851
-0.01329
-0.0112629
-0.00888112
-0.0063858
-0.00407186
-0.00191031
-4.92952e-05
0.00134291
0.00224926
0.00264239
0.00269601
0.00254123
0.00229752
0.00203435
0.00178356
0.0015571
0.00135571
0.00117515
0.00101008
0.000852929
0.000705549
0.000568037
0.000444194
0.000337896
0.000250504
0.000180466
0.000125128
8.07309e-05
4.44244e-05
1.35624e-05
-0.00565586
-0.00591023
-0.00606599
-0.00643076
-0.00742478
-0.00951933
-0.0120645
-0.014451
-0.0157187
-0.0155933
-0.0141885
-0.0119308
-0.0094227
-0.00689684
-0.00457545
-0.00243439
-0.000534981
0.000924375
0.0018993
0.00235915
0.00246192
0.00234857
0.00213768
0.00190248
0.00167577
0.00146819
0.00128092
0.00111181
0.000956227
0.000813916
0.000679424
0.000555269
0.000443253
0.000345011
0.00026172
0.000192741
0.000136414
8.99234e-05
5.06332e-05
1.61998e-05
-0.00520279
-0.005323
-0.00529648
-0.00601111
-0.00797298
-0.0106512
-0.0132967
-0.0156793
-0.0169083
-0.0166352
-0.0150335
-0.0126051
-0.00998956
-0.0074267
-0.00510324
-0.00299286
-0.00108482
0.000414427
0.00144807
0.0019707
0.00212984
0.00207532
0.0019169
0.00172521
0.00153432
0.00135521
0.00119011
0.00103763
0.000896346
0.000765738
0.000643548
0.000530765
0.000428388
0.000338302
0.000260841
0.000195239
0.000140038
9.32957e-05
5.28068e-05
1.69054e-05
-0.00539927
-0.00570517
-0.00537398
-0.00619977
-0.00827356
-0.0111857
-0.013904
-0.0163876
-0.0176469
-0.0173787
-0.0156887
-0.013165
-0.0104769
-0.00791993
-0.00560226
-0.00350265
-0.00161901
-0.000109205
0.000952077
0.00152184
0.00173324
0.0017423
0.00164828
0.00151148
0.0013639
0.00121843
0.00107943
0.000948014
0.00082412
0.000707819
0.000598919
0.000497981
0.000407397
0.000326589
0.000256406
0.00019566
0.000143294
9.74855e-05
5.6427e-05
1.86773e-05
-0.00464006
-0.00546504
-0.00455257
-0.00563923
-0.00815282
-0.0113053
-0.0141786
-0.0166492
-0.0178582
-0.0175668
-0.0158688
-0.0133752
-0.0107414
-0.00823838
-0.0059575
-0.00390185
-0.00206243
-0.00057927
0.000475073
0.00107288
0.00132906
0.00139761
0.00136842
0.00128952
0.00118817
0.00107748
0.000965044
0.000855324
0.000750271
0.000650455
0.000555525
0.000465964
0.000383736
0.000311012
0.000247076
0.000190899
0.000140804
9.6229e-05
5.56162e-05
1.8345e-05
-0.0046445
-0.00536766
-0.00451701
-0.00540247
-0.00774736
-0.0109095
-0.0137156
-0.0160314
-0.0171738
-0.0169644
-0.0154356
-0.0131477
-0.010705
-0.00833032
-0.00612246
-0.00412747
-0.00237586
-0.000978398
1.94456e-05
0.000625934
0.000932729
0.00106432
0.00109875
0.00107272
0.00101298
0.00093546
0.000849829
0.00076185
0.000674455
0.000589155
0.000506532
0.000427289
0.000353391
0.000287853
0.000230451
0.000180415
0.000135797
9.47591e-05
5.60584e-05
1.91361e-05
-0.00475222
-0.00363835
-0.00400474
-0.00493971
-0.00726316
-0.0100613
-0.0125917
-0.0146627
-0.015772
-0.0157566
-0.0145591
-0.0125948
-0.0103992
-0.00819501
-0.00609868
-0.00420995
-0.0025774
-0.00128231
-0.000373682
0.000200268
0.000543364
0.000734381
0.000828821
0.00085746
0.000839058
0.000791381
0.000730391
0.000664235
0.000595447
0.000525282
0.000455126
0.000386613
0.000322326
0.000263824
0.000211972
0.000165281
0.000122904
8.4676e-05
4.91998e-05
1.64907e-05
-0.00383368
-0.00437484
-0.00486657
-0.00530086
-0.00692586
-0.00945083
-0.0116823
-0.013442
-0.0143972
-0.0144186
-0.0134626
-0.0117572
-0.00977681
-0.00777872
-0.00585479
-0.00413506
-0.00269188
-0.00153745
-0.000689281
-0.000125668
0.000233165
0.000452593
0.000576682
0.000637282
0.000653231
0.000637388
0.000601974
0.00055716
0.000507539
0.000454053
0.000397113
0.0003392
0.000284484
0.000234663
0.000189856
0.000149557
0.000113408
8.02064e-05
4.80829e-05
1.64903e-05
-0.00343489
-0.00396257
-0.00450438
-0.00532235
-0.00678174
-0.00880766
-0.0106261
-0.0120144
-0.0127806
-0.0128268
-0.0120491
-0.0105845
-0.00883592
-0.00707817
-0.00542682
-0.00396765
-0.00273724
-0.00173529
-0.000974999
-0.000428795
-4.61401e-05
0.000206875
0.000357091
0.00043795
0.000472184
0.000476533
0.000463873
0.000440635
0.000409503
0.000372572
0.000330926
0.000286452
0.00024244
0.000201725
0.00016464
0.000129693
9.63418e-05
6.53722e-05
3.74522e-05
1.19836e-05
-0.00321703
-0.00377418
-0.00447894
-0.0053462
-0.0064908
-0.00796977
-0.00933669
-0.0103654
-0.0109361
-0.0109836
-0.0103926
-0.00921826
-0.00781302
-0.00639496
-0.00503766
-0.00381123
-0.00276153
-0.00188156
-0.00118558
-0.0006778
-0.000314184
-5.56276e-05
0.000120993
0.000234703
0.000298652
0.000326912
0.000334403
0.000329007
0.000313524
0.00029086
0.000262806
0.000230825
0.000199258
0.000170309
0.000141297
0.000112175
8.47238e-05
6.01818e-05
3.65146e-05
1.26076e-05
-0.00299079
-0.00356042
-0.00423912
-0.00504761
-0.00596978
-0.00705056
-0.00809274
-0.00888145
-0.00933
-0.00937589
-0.00892503
-0.00802928
-0.00693414
-0.00580185
-0.00469455
-0.0036704
-0.00276717
-0.0019955
-0.00136427
-0.000884986
-0.000530549
-0.000269685
-8.33529e-05
4.65599e-05
0.000133316
0.000185809
0.000213929
0.000225162
0.000224077
0.000213951
0.000196784
0.000175042
0.00015262
0.0001305
0.000108479
8.6511e-05
6.44722e-05
4.36355e-05
2.38042e-05
7.39999e-06
-0.00281812
-0.00336636
-0.00398909
-0.00470915
-0.00548319
-0.00632047
-0.00712794
-0.00773848
-0.00806769
-0.00808658
-0.00775206
-0.00707506
-0.00621163
-0.00530101
-0.00439248
-0.003528
-0.00274832
-0.00206982
-0.00150527
-0.0010623
-0.000719544
-0.000453851
-0.000253519
-0.000109627
-9.17521e-06
5.95399e-05
0.000103574
0.000127817
0.000138567
0.000141372
0.00013861
0.000129936
0.000116592
0.000101745
8.68473e-05
6.97774e-05
5.24601e-05
3.66699e-05
2.29003e-05
8.61122e-06
-0.00265993
-0.00317148
-0.00373566
-0.00437149
-0.00503504
-0.00570296
-0.0063207
-0.00678844
-0.00704408
-0.00706497
-0.00681609
-0.00630288
-0.0056216
-0.00487526
-0.0041201
-0.00339041
-0.00272321
-0.00213366
-0.00162395
-0.0012065
-0.000876633
-0.000617566
-0.000416894
-0.000265062
-0.000154686
-7.61085e-05
-1.99976e-05
1.95374e-05
4.57999e-05
6.14976e-05
6.96908e-05
7.19338e-05
6.92707e-05
6.26224e-05
5.36715e-05
4.47078e-05
3.5136e-05
2.49454e-05
1.39857e-05
3.69179e-06
-0.0025156
-0.00298615
-0.00350285
-0.00406172
-0.0046277
-0.00517191
-0.00565864
-0.00602959
-0.00623728
-0.00625783
-0.00606792
-0.00566964
-0.00512624
-0.0045114
-0.00388337
-0.0032727
-0.00269528
-0.00216929
-0.00170967
-0.00132636
-0.00101727
-0.000767819
-0.000567168
-0.000408076
-0.000284115
-0.000190171
-0.000120512
-6.88607e-05
-3.09798e-05
-4.34216e-06
1.34758e-05
2.46056e-05
3.04796e-05
3.2358e-05
3.19879e-05
2.96503e-05
2.35837e-05
1.61714e-05
8.79308e-06
2.40952e-06
-0.00238467
-0.00281602
-0.00328319
-0.00377249
-0.00425951
-0.00471622
-0.00511074
-0.00540695
-0.00557871
-0.00559883
-0.00545249
-0.00514197
-0.00470701
-0.00420427
-0.00367741
-0.00315402
-0.00265572
-0.00219704
-0.00178645
-0.00143219
-0.00113837
-0.000895927
-0.000694961
-0.000531544
-0.000401642
-0.000298995
-0.000218153
-0.000155477
-0.000107542
-7.08803e-05
-4.28969e-05
-2.26091e-05
-9.6896e-06
-2.34271e-06
2.31579e-06
4.53842e-06
5.67299e-06
4.43782e-06
3.19277e-06
1.51227e-06
-0.00226533
-0.00265857
-0.00307921
-0.00351265
-0.0039361
-0.0043261
-0.00465612
-0.004901
-0.00504244
-0.00506328
-0.00494852
-0.00470254
-0.00435332
-0.00393906
-0.00349569
-0.00304972
-0.00261977
-0.00221715
-0.00184887
-0.00152256
-0.00124505
-0.00101277
-0.000816702
-0.000651406
-0.000515147
-0.000404562
-0.000314483
-0.000241309
-0.000182953
-0.000137197
-0.00010098
-7.16999e-05
-4.88542e-05
-3.1838e-05
-1.91117e-05
-1.06182e-05
-5.9251e-06
-3.12219e-06
-1.59022e-06
-1.07717e-06
-0.00215576
-0.00251482
-0.00289403
-0.00328042
-0.00365248
-0.00399032
-0.00427202
-0.00448004
-0.00459945
-0.00461868
-0.00452866
-0.00433277
-0.00404998
-0.00370854
-0.00333756
-0.00295788
-0.00258378
-0.00222814
-0.001899
-0.0016015
-0.00134112
-0.00111686
-0.000923221
-0.000756278
-0.000614325
-0.000495523
-0.000396904
-0.000315033
-0.000246932
-0.00019051
-0.000144647
-0.000108771
-8.1573e-05
-6.01892e-05
-4.33986e-05
-2.99197e-05
-1.92005e-05
-1.124e-05
-5.28909e-06
-1.42095e-06
-0.00205415
-0.00238518
-0.0027286
-0.00307496
-0.0034054
-0.00370213
-0.00394713
-0.00412617
-0.00423008
-0.00425056
-0.00417966
-0.0040215
-0.00379189
-0.00351038
-0.00319851
-0.00287511
-0.00255214
-0.00223936
-0.0019448
-0.00167296
-0.00142873
-0.00121356
-0.00102383
-0.000856744
-0.000711657
-0.000586934
-0.000480147
-0.000389582
-0.000313688
-0.000250433
-0.000197542
-0.000153065
-0.000116146
-8.66578e-05
-6.35256e-05
-4.52343e-05
-3.0981e-05
-1.99561e-05
-1.12089e-05
-4.02042e-06
-0.00196178
-0.00226891
-0.00258183
-0.00289478
-0.00319102
-0.00345446
-0.00367089
-0.00382892
-0.00392051
-0.00394057
-0.00388584
-0.0037591
-0.00357103
-0.00333841
-0.00307782
-0.00280286
-0.00252408
-0.00224991
-0.00198687
-0.00173931
-0.00151077
-0.00130357
-0.00111698
-0.000949227
-0.000799412
-0.000667388
-0.000552516
-0.000453403
-0.000367969
-0.000294638
-0.000232979
-0.000182359
-0.000141162
-0.000107528
-8.02172e-05
-5.78563e-05
-3.96038e-05
-2.45044e-05
-1.32405e-05
-4.18969e-06
-0.00187741
-0.00216514
-0.00245324
-0.00273801
-0.00300574
-0.00324225
-0.00343524
-0.00357638
-0.00365932
-0.00368026
-0.0036376
-0.00353535
-0.00338236
-0.00319059
-0.00297285
-0.00274035
-0.00250166
-0.00226327
-0.00202959
-0.00180412
-0.00159035
-0.00139064
-0.0012059
-0.00103683
-0.000883608
-0.000745565
-0.000622691
-0.000515535
-0.000423366
-0.000344171
-0.000276111
-0.000218066
-0.000169245
-0.000129057
-9.6121e-05
-6.97036e-05
-4.85357e-05
-3.22216e-05
-1.77841e-05
-5.93888e-06
-0.00180198
-0.00207383
-0.00234159
-0.00260315
-0.00284749
-0.00306165
-0.00323588
-0.00336275
-0.00343814
-0.00345976
-0.00342716
-0.00334428
-0.00321963
-0.00306245
-0.00288205
-0.00268779
-0.00248606
-0.00228033
-0.0020738
-0.00186948
-0.00166968
-0.00147673
-0.00129302
-0.00112109
-0.000962477
-0.000817583
-0.000686877
-0.000570913
-0.000468815
-0.000379938
-0.000304102
-0.000240462
-0.00018745
-0.0001434
-0.00010699
-7.74345e-05
-5.3484e-05
-3.43941e-05
-1.87143e-05
-5.95366e-06
-0.00173478
-0.00199413
-0.00224571
-0.00248809
-0.00271271
-0.00290855
-0.00306686
-0.00318213
-0.00325118
-0.00327247
-0.00324734
-0.0031804
-0.00307879
-0.00295083
-0.00280437
-0.00264529
-0.00247686
-0.00230208
-0.00212284
-0.00193946
-0.00175215
-0.00156391
-0.00137956
-0.0012037
-0.00103868
-0.000885273
-0.000745201
-0.000620508
-0.000511314
-0.000415866
-0.000333396
-0.000263318
-0.000204566
-0.000155826
-0.00011588
-8.3642e-05
-5.78161e-05
-3.72978e-05
-2.0583e-05
-6.75334e-06
-0.00167639
-0.0019264
-0.00216561
-0.00239249
-0.00259986
-0.00277919
-0.00292408
-0.00302923
-0.00309214
-0.00311282
-0.0030928
-0.00303752
-0.00295549
-0.00285375
-0.00273739
-0.00261082
-0.00247579
-0.00233161
-0.00217709
-0.00201201
-0.00183678
-0.00165365
-0.00146744
-0.00128483
-0.0011107
-0.000947787
-0.000798432
-0.000664399
-0.000545649
-0.000442036
-0.000352837
-0.000277276
-0.000214175
-0.000162047
-0.000119565
-8.53488e-05
-5.8154e-05
-3.66131e-05
-1.95854e-05
-5.96704e-06
-0.00162633
-0.00187047
-0.0021016
-0.00231726
-0.00251134
-0.00267659
-0.00280846
-0.00290396
-0.00296084
-0.00297905
-0.00296151
-0.00291532
-0.00284887
-0.00276885
-0.00268059
-0.0025869
-0.00248473
-0.00236922
-0.002237
-0.00208669
-0.00191786
-0.00173447
-0.0015446
-0.00135612
-0.001174
-0.00100166
-0.00084186
-0.000697647
-0.000570834
-0.000460919
-0.000366592
-0.0002866
-0.00021983
-0.000164846
-0.000120325
-8.47753e-05
-5.6883e-05
-3.51659e-05
-1.85137e-05
-5.46532e-06
-0.00158333
-0.00182398
-0.00204942
-0.00225624
-0.0024397
-0.0025952
-0.00271819
-0.00280551
-0.00285577
-0.00287043
-0.00285359
-0.00281286
-0.0027584
-0.00269749
-0.00263407
-0.00257048
-0.00250275
-0.0024178
-0.00230602
-0.00216428
-0.00199445
-0.00180403
-0.00160392
-0.00140473
-0.00121254
-0.00103131
-0.000864253
-0.000714073
-0.0005819
-0.000467612
-0.000369816
-0.000287229
-0.000218426
-0.000162138
-0.00011695
-8.11729e-05
-5.346e-05
-3.20624e-05
-1.62324e-05
-4.17692e-06
-0.00156952
-0.00180887
-0.0020298
-0.00223076
-0.00240843
-0.00255851
-0.00267649
-0.00275922
-0.00280572
-0.00281795
-0.00280075
-0.00276199
-0.00271129
-0.0026564
-0.00260181
-0.00254941
-0.00249283
-0.00241847
-0.00231589
-0.00218132
-0.00201568
-0.00182628
-0.0016248
-0.00142259
-0.0012267
-0.00104234
-0.00087254
-0.000719806
-0.000585412
-0.000469549
-0.000370677
-0.000287359
-0.000217968
-0.000161284
-0.000115648
-7.96785e-05
-5.17859e-05
-3.05709e-05
-1.50104e-05
-3.49113e-06
)
;

boundaryField
{
    inlet
    {
        type            zeroGradient;
    }
    outlet
    {
        type            fixedValue;
        value           uniform 0;
    }
    lowerWall
    {
        type            zeroGradient;
    }
    upperWall
    {
        type            zeroGradient;
    }
    defaultFaces
    {
        type            empty;
    }
}


// ************************************************************************* //
