/*--------------------------------*- C++ -*----------------------------------*\
| =========                 |                                                 |
| \\      /  F ield         | OpenFOAM: The Open Source CFD Toolbox           |
|  \\    /   O peration     | Version:  2112                                  |
|   \\  /    A nd           | Website:  www.openfoam.com                      |
|    \\/     M anipulation  |                                                 |
\*---------------------------------------------------------------------------*/
FoamFile
{
    version     2.0;
    format      ascii;
    arch        "LSB;label=32;scalar=64";
    class       volScalarField;
    location    "0.16";
    object      nut;
}
// * * * * * * * * * * * * * * * * * * * * * * * * * * * * * * * * * * * * * //

dimensions      [0 2 -1 0 0 0 0];

internalField   nonuniform List<scalar> 
1880
(
3.57843e-11
5.22775e-12
2.22004e-13
5.64997e-14
5.12493e-14
4.49659e-14
4.40836e-14
2.73742e-15
4.71314e-14
1.48311e-13
2.60238e-14
5.63069e-14
4.22543e-13
4.75185e-13
4.83545e-13
3.50439e-13
3.31979e-13
4.6639e-13
6.43727e-13
9.78006e-13
1.0064e-12
1.25885e-12
2.05182e-12
1.41692e-12
2.18176e-11
4.10496e-12
4.08868e-10
2.63987e-11
4.269e-09
8.39752e-09
4.88354e-09
6.29507e-09
8.86514e-10
1.07927e-10
2.21552e-10
3.09296e-11
1.1217e-11
2.69966e-12
3.08082e-11
1.92174e-11
5.09266e-12
1.67183e-14
4.93992e-11
2.24153e-11
1.11188e-10
1.86636e-11
5.98576e-11
1.82026e-11
2.888e-11
4.4262e-11
6.7828e-11
8.39814e-11
1.34002e-10
7.12405e-10
6.11391e-10
3.71375e-09
4.27929e-09
1.17276e-08
2.34075e-08
7.05869e-08
2.294e-09
1.31239e-09
8.73187e-10
4.26147e-10
2.39531e-09
1.20584e-09
8.4797e-09
1.98689e-09
4.621e-09
2.17564e-09
3.8705e-09
4.74695e-10
3.03077e-10
4.64454e-10
9.57983e-10
6.86022e-10
4.02162e-12
2.7297e-09
7.84331e-10
3.40798e-09
6.06336e-09
2.97807e-09
1.37412e-08
8.09565e-09
1.55141e-08
2.27893e-08
1.48193e-08
4.04561e-08
3.44929e-08
4.52064e-08
8.29428e-12
4.57095e-10
3.90253e-10
6.49119e-10
4.66511e-09
6.92461e-10
5.95764e-09
1.00106e-11
5.09323e-09
7.87935e-11
2.43768e-09
1.0721e-09
3.31594e-09
8.69969e-11
1.70457e-09
2.72145e-09
3.69605e-09
4.34156e-09
2.83955e-09
6.28465e-09
5.53249e-09
9.82171e-09
1.12389e-08
1.47097e-08
1.61208e-08
1.83604e-08
1.89293e-08
2.59022e-08
3.13098e-08
4.57185e-08
1.91007e-10
1.47701e-10
1.08634e-09
2.03085e-09
2.88842e-09
3.79645e-10
5.5192e-09
5.57083e-10
3.52782e-09
1.20561e-10
4.00275e-09
1.80998e-09
6.47357e-10
1.39962e-08
5.86005e-09
1.33417e-09
1.62001e-09
3.02868e-09
5.31907e-09
7.29901e-09
1.11434e-08
1.35584e-08
1.57724e-08
1.63766e-08
1.60667e-08
1.96665e-08
1.47507e-08
2.7083e-08
2.49555e-08
2.92206e-08
3.54397e-11
7.40965e-10
7.03057e-11
8.94601e-10
4.99388e-09
1.37035e-09
4.00713e-09
3.6751e-11
6.05678e-09
6.01835e-11
3.74083e-09
2.53613e-09
3.03698e-09
1.15082e-08
7.0466e-09
6.42826e-10
1.36772e-09
2.8865e-09
3.58215e-09
6.02057e-09
7.35255e-09
8.93687e-09
1.00971e-08
1.03826e-08
1.27512e-08
1.38981e-08
1.66604e-08
2.03691e-08
2.27456e-08
2.70567e-08
1.0096e-10
6.37723e-10
6.38197e-10
2.64113e-09
3.77222e-09
1.0827e-09
4.72837e-09
7.56778e-10
4.80281e-09
5.84981e-10
3.63006e-09
6.2283e-10
2.05618e-09
1.8592e-11
5.21553e-10
9.9387e-10
1.87556e-09
3.03055e-09
5.2924e-09
7.28362e-09
9.67781e-09
1.06824e-08
1.13513e-08
1.14919e-08
1.08077e-08
1.53092e-08
1.25726e-08
1.99129e-08
2.0601e-08
2.1962e-08
1.2073e-10
1.04725e-09
5.23785e-10
2.40078e-09
4.75524e-09
1.71655e-09
4.55648e-09
7.09075e-10
6.01359e-09
8.39668e-10
3.15161e-09
6.54311e-10
3.3536e-09
5.82669e-10
1.25831e-09
1.35756e-09
2.24502e-09
3.02066e-09
4.30205e-09
5.67694e-09
7.0402e-09
7.41494e-09
8.3679e-09
8.71279e-09
1.05134e-08
1.22323e-08
1.39443e-08
1.68442e-08
2.02593e-08
2.09504e-08
1.9368e-10
1.34918e-09
8.10169e-10
2.93154e-09
4.72959e-09
1.84067e-09
5.45862e-09
1.18797e-09
5.66932e-09
1.31088e-09
3.96252e-09
1.4471e-09
3.51048e-09
1.37821e-09
2.00187e-09
1.92643e-09
2.7813e-09
3.19671e-09
4.59869e-09
5.55803e-09
6.9014e-09
7.19959e-09
7.48536e-09
8.85538e-09
9.12852e-09
1.25779e-08
1.20933e-08
1.55494e-08
1.77863e-08
1.80037e-08
3.45991e-10
1.69356e-09
1.10353e-09
3.24803e-09
4.90736e-09
2.09659e-09
5.92903e-09
1.46357e-09
5.83379e-09
1.61291e-09
4.06115e-09
1.87662e-09
3.88141e-09
2.01089e-09
2.50229e-09
2.44389e-09
3.1627e-09
3.34915e-09
4.35122e-09
4.9811e-09
5.97141e-09
6.463e-09
6.9868e-09
8.18395e-09
9.28749e-09
1.0771e-08
1.23201e-08
1.42017e-08
1.70577e-08
1.7231e-08
4.94338e-10
2.0016e-09
1.34818e-09
3.39701e-09
5.11676e-09
2.38117e-09
6.09456e-09
1.64411e-09
6.09847e-09
1.82075e-09
3.90349e-09
2.1223e-09
4.25238e-09
2.5289e-09
2.89776e-09
2.83931e-09
3.51823e-09
3.60562e-09
4.36723e-09
4.84987e-09
5.53245e-09
6.26736e-09
6.51358e-09
8.206e-09
8.8657e-09
1.05509e-08
1.12731e-08
1.30699e-08
1.50694e-08
1.58029e-08
8.70465e-11
2.08417e-09
1.56458e-09
3.59418e-09
4.89824e-09
2.40039e-09
6.63127e-09
1.9886e-09
5.57982e-09
2.06761e-09
4.45997e-09
2.58381e-09
4.12002e-09
2.95693e-09
3.27282e-09
3.30371e-09
3.78196e-09
3.80216e-09
4.39583e-09
4.76186e-09
5.28497e-09
6.10555e-09
6.41617e-09
7.73256e-09
8.62959e-09
9.57356e-09
1.09699e-08
1.23085e-08
1.39968e-08
1.49602e-08
5.37155e-10
2.04997e-09
1.33998e-09
3.13493e-09
5.20124e-09
2.63636e-09
6.26097e-09
1.99214e-09
5.97565e-09
2.12375e-09
3.8046e-09
2.50213e-09
4.58924e-09
3.34514e-09
3.48542e-09
3.4918e-09
4.04527e-09
4.05411e-09
4.41648e-09
4.79756e-09
5.10183e-09
6.024e-09
6.26899e-09
7.55418e-09
8.31963e-09
9.23598e-09
1.02927e-08
1.15977e-08
1.28458e-08
1.40751e-08
3.59266e-10
1.41628e-09
1.57882e-09
3.45463e-09
4.40926e-09
2.36557e-09
6.84305e-09
2.31743e-09
5.4215e-09
2.29293e-09
4.24148e-09
2.8247e-09
4.30622e-09
3.61387e-09
3.84486e-09
3.95486e-09
4.12925e-09
4.12047e-09
4.42043e-09
4.73409e-09
4.99287e-09
5.86574e-09
6.1457e-09
7.19982e-09
8.01729e-09
8.7654e-09
9.84343e-09
1.10365e-08
1.2038e-08
1.32996e-08
7.71956e-11
1.43181e-09
5.29861e-10
1.39059e-09
5.52913e-09
2.73252e-09
5.019e-09
1.99824e-09
6.10823e-09
2.2027e-09
3.16832e-09
2.51922e-09
4.46653e-09
3.76197e-09
3.82179e-09
3.90869e-09
4.32202e-09
4.2647e-09
4.41136e-09
4.7062e-09
4.88844e-09
5.71311e-09
6.02015e-09
6.9407e-09
7.71814e-09
8.47211e-09
9.38584e-09
1.05502e-08
1.13776e-08
1.26447e-08
3.15104e-10
5.8043e-10
1.81714e-09
2.66748e-09
3.88136e-09
1.93168e-09
6.93696e-09
2.51793e-09
4.77697e-09
2.27621e-09
4.13318e-09
2.90253e-09
4.1272e-09
3.96673e-09
4.11308e-09
4.20208e-09
4.11967e-09
4.03825e-09
4.14142e-09
4.4501e-09
4.6428e-09
5.4466e-09
5.80095e-09
6.65286e-09
7.41742e-09
8.17994e-09
9.02356e-09
1.01242e-08
1.08929e-08
1.20397e-08
1.288e-11
5.90884e-10
1.57339e-11
7.03243e-11
5.1326e-09
1.52398e-09
2.79479e-09
1.54089e-09
5.6946e-09
1.76947e-09
2.05734e-09
2.37008e-09
4.6659e-09
3.99314e-09
3.83567e-09
3.8635e-09
4.00691e-09
3.80506e-09
3.82674e-09
4.1133e-09
4.37871e-09
5.12462e-09
5.5936e-09
6.37232e-09
7.12422e-09
7.93733e-09
8.7008e-09
9.76205e-09
1.04916e-08
1.15789e-08
2.57127e-09
1.82512e-09
1.632e-09
1.32277e-09
3.42075e-09
2.52025e-09
9.20271e-09
3.04153e-09
5.0282e-09
3.16492e-09
4.87189e-09
1.37985e-09
1.81607e-10
7.65819e-10
1.52756e-08
1.95293e-08
1.31716e-08
2.76486e-09
1.10896e-09
9.02469e-12
4.72083e-12
4.91869e-10
8.81729e-10
2.22899e-09
2.77035e-09
4.75616e-09
5.25098e-09
7.19299e-09
7.91895e-09
9.66012e-09
4.95577e-09
6.03721e-09
7.41028e-10
7.65846e-11
1.79904e-10
1.12271e-11
1.45195e-11
1.36008e-11
2.61239e-11
3.76864e-12
1.3367e-12
8.38655e-12
8.48345e-11
1.5754e-10
1.90708e-10
1.38936e-10
6.83407e-11
2.47797e-11
1.17271e-11
3.87012e-12
2.85562e-12
1.64692e-12
1.09231e-12
1.06752e-12
9.9582e-13
2.9125e-13
4.25885e-13
5.74857e-14
1.42816e-14
3.85537e-14
3.50826e-11
5.06995e-12
2.05281e-13
4.8278e-14
3.71103e-14
3.06393e-14
5.05764e-14
9.13213e-15
2.55784e-14
6.35751e-14
2.73902e-14
1.24596e-13
5.37462e-13
7.01132e-13
6.25563e-13
3.64288e-13
1.42471e-13
4.3064e-14
1.3156e-14
5.50794e-15
2.91062e-15
2.22323e-15
1.35067e-15
2.00338e-15
9.96439e-16
1.39925e-15
1.03639e-15
7.6843e-16
1.59834e-16
3.93862e-17
4.89242e-10
6.96437e-09
6.09965e-09
1.27061e-09
3.91086e-11
2.42354e-09
5.18202e-11
6.26101e-10
9.6917e-10
4.70048e-10
2.01238e-08
3.55682e-08
1.16891e-07
4.33748e-07
3.88008e-08
8.57871e-09
3.15802e-08
1.38568e-06
5.59708e-09
6.6738e-08
7.79382e-08
2.1564e-08
6.92063e-08
6.57472e-08
1.26521e-07
4.90808e-08
7.91977e-08
1.48177e-08
1.06717e-06
3.67994e-09
5.32152e-08
4.57178e-08
3.55001e-08
5.12642e-08
3.09099e-08
2.52448e-08
7.98009e-08
8.93731e-08
1.21328e-08
2.31852e-09
4.53404e-08
3.47159e-08
3.7114e-08
4.29063e-08
2.86113e-08
4.09146e-08
6.48901e-08
5.97997e-08
1.43935e-08
4.15011e-08
4.28647e-08
3.4152e-08
3.132e-08
3.79594e-08
3.44362e-08
2.82954e-08
4.79298e-08
6.06042e-08
2.79255e-08
2.75619e-08
3.51279e-08
2.77909e-08
2.85089e-08
3.17994e-08
3.04124e-08
3.2618e-08
4.13072e-08
3.87368e-08
3.34648e-08
3.0882e-08
3.23864e-08
2.58026e-08
2.73069e-08
2.9788e-08
2.85152e-08
2.95534e-08
3.62223e-08
3.96907e-08
2.50372e-08
2.50325e-08
2.6505e-08
2.30438e-08
2.38077e-08
2.61661e-08
2.71524e-08
2.79789e-08
2.94546e-08
3.06966e-08
2.8165e-08
2.52771e-08
2.30827e-08
2.06566e-08
2.32249e-08
2.44222e-08
2.41057e-08
2.63921e-08
2.73201e-08
2.73415e-08
2.2342e-08
2.18135e-08
1.98039e-08
1.92741e-08
2.05978e-08
2.19677e-08
2.29889e-08
2.34048e-08
2.32112e-08
2.35494e-08
2.21199e-08
2.01259e-08
1.75566e-08
1.74246e-08
1.9544e-08
2.06652e-08
2.06825e-08
2.17825e-08
2.12362e-08
2.06857e-08
1.89924e-08
1.76341e-08
1.58246e-08
1.6378e-08
1.78159e-08
1.88703e-08
1.9395e-08
1.95887e-08
1.88986e-08
1.84491e-08
1.76011e-08
1.60151e-08
1.46262e-08
1.51108e-08
1.66381e-08
1.77007e-08
1.77628e-08
1.803e-08
1.72895e-08
1.65417e-08
1.56245e-08
1.41803e-08
1.3605e-08
1.42917e-08
1.54558e-08
1.63511e-08
1.65633e-08
1.65164e-08
1.58048e-08
1.50445e-08
1.4248e-08
1.28409e-08
1.29317e-08
1.34862e-08
1.45285e-08
1.52968e-08
1.53991e-08
1.53053e-08
1.4656e-08
1.38314e-08
1.29404e-08
1.15996e-08
1.23223e-08
1.28667e-08
1.37234e-08
1.43235e-08
1.4446e-08
1.4313e-08
1.37482e-08
1.29083e-08
1.20475e-08
1.06995e-08
1.03922e-08
9.88472e-09
1.08587e-08
1.02869e-08
1.07507e-08
9.34222e-09
9.06046e-09
6.73215e-09
6.08232e-09
3.80004e-09
3.15033e-13
1.7817e-12
4.02336e-12
1.30738e-11
2.122e-11
3.50837e-11
3.97895e-11
4.3921e-11
4.03327e-11
3.39897e-11
1.17183e-15
2.8686e-15
6.91965e-15
1.06666e-14
2.03151e-14
3.60677e-14
4.18718e-14
6.38335e-14
5.66438e-14
3.62206e-14
3.7775e-08
4.12944e-08
4.9315e-09
3.41671e-09
2.02866e-09
1.16109e-09
9.0147e-10
1.2246e-09
4.35475e-09
1.43038e-08
6.65703e-08
1.36454e-07
3.52683e-08
3.79942e-09
4.64727e-10
6.69866e-11
9.99216e-12
1.29279e-12
1.09375e-13
2.6402e-15
5.74433e-17
1.57379e-15
2.89722e-15
2.63456e-15
1.78077e-15
1.03271e-15
5.62542e-16
2.94731e-16
1.57523e-16
8.39609e-17
4.6471e-17
2.65931e-17
1.55638e-17
9.6403e-18
6.22826e-18
3.9909e-18
3.14934e-18
1.80924e-18
2.10566e-18
8.30114e-19
1.55756e-07
5.83742e-08
1.76837e-07
1.67208e-07
1.3579e-07
6.00088e-09
2.16851e-09
5.80832e-08
1.22033e-07
1.51859e-07
1.60365e-07
1.48969e-07
1.27992e-07
1.0087e-07
7.23181e-08
4.4856e-08
2.23674e-08
8.49823e-09
2.48566e-09
5.94179e-10
1.23138e-10
2.25365e-11
3.61394e-12
4.95671e-13
5.55458e-14
3.99722e-15
1.21281e-16
2.98696e-18
2.90297e-17
6.88567e-17
8.57853e-17
6.74651e-17
7.74087e-17
5.39463e-17
6.72235e-17
3.92006e-17
7.38188e-17
3.47738e-17
7.89895e-17
3.7036e-17
2.82076e-08
1.17539e-08
1.56686e-07
1.09486e-07
1.06355e-07
1.91092e-06
9.70016e-07
2.61122e-09
1.18582e-08
4.93682e-08
9.00071e-08
1.16296e-07
1.198e-07
1.03837e-07
8.16848e-08
6.19494e-08
4.69559e-08
3.60108e-08
2.78084e-08
2.11887e-08
1.53251e-08
9.91247e-09
5.36381e-09
2.32633e-09
8.34233e-10
2.59029e-10
7.91422e-11
2.30783e-11
7.52416e-12
2.41671e-12
8.40056e-13
3.07246e-13
1.09319e-13
3.93447e-14
1.18573e-14
4.52738e-15
3.28324e-16
2.61717e-16
6.63275e-17
2.082e-16
1.00611e-07
1.18554e-07
2.86977e-08
3.33621e-09
2.46961e-06
2.93358e-06
1.34527e-06
8.22898e-08
1.82301e-13
7.80529e-09
2.29896e-08
4.55958e-08
7.11308e-08
8.17174e-08
7.54937e-08
6.08788e-08
4.6153e-08
3.47351e-08
2.6462e-08
2.04053e-08
1.58495e-08
1.23543e-08
9.66455e-09
7.58346e-09
5.97877e-09
4.69243e-09
3.67804e-09
2.79925e-09
2.10239e-09
1.48106e-09
1.01293e-09
6.30148e-10
3.86902e-10
2.03231e-10
1.14371e-10
5.29844e-11
2.59126e-11
1.07519e-11
4.23731e-12
1.62077e-12
2.63162e-07
4.25398e-09
2.07365e-08
8.08999e-08
2.88096e-06
3.16485e-06
1.52779e-06
2.11476e-07
1.5642e-09
9.15649e-09
2.80725e-08
3.96796e-08
5.3027e-08
5.56414e-08
5.1196e-08
4.68758e-08
4.11633e-08
3.27706e-08
2.49225e-08
1.9027e-08
1.46658e-08
1.13863e-08
8.91278e-09
7.03098e-09
5.60454e-09
4.491e-09
3.64663e-09
2.95664e-09
2.44111e-09
1.99569e-09
1.66994e-09
1.37187e-09
1.16596e-09
9.54921e-10
8.27938e-10
6.78809e-10
5.97432e-10
4.94834e-10
4.45508e-10
3.83944e-10
6.80599e-09
1.1919e-07
1.03827e-08
2.75855e-07
3.57876e-06
3.73029e-06
2.17473e-06
2.57797e-07
8.62428e-09
7.90108e-09
6.46691e-08
7.97579e-08
8.06618e-08
7.49642e-08
5.95308e-08
3.51419e-08
2.53747e-08
2.48835e-08
2.33335e-08
1.87672e-08
1.43592e-08
1.10342e-08
8.58738e-09
6.75723e-09
5.38859e-09
4.32944e-09
3.52869e-09
2.8714e-09
2.37635e-09
1.94626e-09
1.62955e-09
1.33773e-09
1.13769e-09
9.29985e-10
8.09937e-10
6.61168e-10
5.93331e-10
4.88185e-10
4.59277e-10
3.91128e-10
6.3782e-08
3.81992e-07
2.26408e-07
3.11142e-08
3.31311e-06
3.54427e-06
2.60028e-06
3.00792e-07
2.52554e-09
1.59291e-08
6.16957e-08
5.02623e-08
1.12812e-08
6.59004e-07
5.40123e-07
3.58871e-08
2.4464e-08
1.52876e-08
1.43747e-08
1.55344e-08
1.39846e-08
1.10848e-08
8.52894e-09
6.62639e-09
5.24729e-09
4.20467e-09
3.42977e-09
2.79867e-09
2.32323e-09
1.90818e-09
1.59887e-09
1.31291e-09
1.11487e-09
9.08405e-10
7.87348e-10
6.38115e-10
5.68185e-10
4.60949e-10
4.30627e-10
3.5981e-10
1.3096e-07
4.53204e-08
1.71361e-07
2.7125e-09
2.63707e-06
3.52305e-06
2.98144e-06
3.55392e-07
4.56443e-08
5.76493e-08
8.38614e-08
6.96507e-08
5.68302e-08
2.5568e-08
7.13824e-07
2.96886e-07
1.32754e-07
1.48681e-07
4.50084e-09
1.18662e-08
1.14998e-08
1.03e-08
8.49337e-09
6.70574e-09
5.28552e-09
4.20935e-09
3.43256e-09
2.81433e-09
2.35116e-09
1.94476e-09
1.63531e-09
1.34735e-09
1.14366e-09
9.30079e-10
8.0174e-10
6.45121e-10
5.67884e-10
4.53201e-10
4.17239e-10
3.404e-10
2.18879e-07
1.88106e-08
3.67408e-09
9.56584e-08
1.78836e-06
2.59714e-06
2.20995e-06
8.79135e-11
9.13258e-08
7.31592e-08
9.70077e-08
8.90447e-08
8.06524e-08
5.87105e-08
2.97976e-08
1.49247e-08
1.42906e-09
1.63402e-10
1.45345e-11
3.45833e-09
1.74384e-10
6.31194e-09
7.29628e-09
6.47102e-09
5.41889e-09
4.40733e-09
3.57904e-09
2.89064e-09
2.37791e-09
1.94631e-09
1.62306e-09
1.33051e-09
1.12341e-09
9.08555e-10
7.77139e-10
6.19394e-10
5.37391e-10
4.19748e-10
3.78404e-10
2.97825e-10
2.48134e-08
5.97516e-08
1.06166e-07
1.84388e-09
3.36335e-07
2.19489e-07
6.84101e-08
1.41167e-07
1.21317e-07
2.94731e-08
2.8525e-08
6.93912e-08
5.55233e-08
1.71289e-08
2.91623e-10
7.30606e-10
1.00276e-08
3.6277e-08
3.99679e-08
1.61801e-08
3.46127e-09
8.63867e-10
1.00464e-09
2.3094e-09
3.2065e-09
3.15758e-09
2.83656e-09
2.46736e-09
2.14321e-09
1.82085e-09
1.55061e-09
1.28751e-09
1.09177e-09
8.83173e-10
7.51492e-10
5.93987e-10
5.07342e-10
3.8642e-10
3.38654e-10
2.52224e-10
7.46028e-08
2.10056e-08
3.31182e-08
8.87616e-08
1.12852e-07
1.2601e-07
1.17991e-07
1.04971e-07
7.90616e-08
8.66871e-08
3.26309e-08
6.29398e-08
1.22827e-08
2.68649e-08
4.82265e-08
3.71994e-08
1.76479e-08
1.12255e-08
1.10609e-08
1.43405e-08
1.71511e-08
1.64306e-08
1.30273e-08
9.5155e-09
6.90532e-09
5.06343e-09
3.81317e-09
2.93138e-09
2.34228e-09
1.89423e-09
1.5695e-09
1.2849e-09
1.07974e-09
8.67251e-10
7.31722e-10
5.72514e-10
4.80745e-10
3.55793e-10
3.00731e-10
2.03858e-10
6.70045e-08
5.66491e-08
5.12328e-08
8.18579e-08
1.05863e-07
9.22915e-08
7.06069e-08
7.44888e-08
7.22634e-08
9.09922e-08
4.38057e-08
3.33897e-08
4.56962e-09
3.84985e-08
3.57671e-09
5.04645e-07
4.60645e-07
3.91026e-07
2.0095e-07
7.74879e-10
4.13416e-09
8.64419e-09
8.08281e-09
6.60862e-09
5.24652e-09
4.08731e-09
3.22305e-09
2.59532e-09
2.15876e-09
1.80033e-09
1.51707e-09
1.25488e-09
1.0576e-09
8.4955e-10
7.13643e-10
5.5443e-10
4.58767e-10
3.30249e-10
2.67872e-10
1.45653e-10
5.08858e-08
5.09648e-08
4.96124e-08
6.03831e-08
7.14108e-08
8.70954e-08
7.11185e-08
3.04481e-08
3.08287e-08
7.42003e-08
2.85891e-08
3.33178e-09
3.37566e-07
6.74926e-08
3.11837e-08
4.30939e-09
1.02508e-08
2.94667e-08
6.89301e-09
3.47247e-09
5.14055e-09
7.42453e-09
8.40195e-09
7.6095e-09
6.00335e-09
4.52966e-09
3.4527e-09
2.69442e-09
2.19092e-09
1.80242e-09
1.50948e-09
1.24453e-09
1.04691e-09
8.3897e-10
7.02085e-10
5.42502e-10
4.4412e-10
3.12904e-10
2.44511e-10
7.44643e-11
5.27016e-08
4.31125e-08
4.18321e-08
4.88892e-08
5.08333e-08
4.54752e-08
4.47685e-08
6.03906e-08
2.44604e-08
3.78811e-09
3.16062e-08
5.7301e-08
1.83898e-08
2.09352e-08
3.9797e-08
4.55812e-10
2.31553e-09
2.1119e-08
3.3086e-08
3.17388e-08
2.47228e-08
1.79237e-08
1.29511e-08
9.50152e-09
7.0065e-09
5.1298e-09
3.79341e-09
2.86531e-09
2.2668e-09
1.83318e-09
1.51818e-09
1.24525e-09
1.04353e-09
8.34696e-10
6.96972e-10
5.37365e-10
4.38034e-10
3.05997e-10
2.35027e-10
4.50648e-11
3.40545e-08
3.91214e-08
3.62296e-08
3.85597e-08
4.55559e-08
4.47248e-08
2.44004e-08
4.35588e-08
2.67575e-08
3.72693e-08
1.61272e-09
3.05846e-08
5.82239e-09
6.1486e-09
1.49729e-08
2.67767e-07
4.74406e-07
3.37786e-07
1.5771e-07
5.62601e-08
6.87328e-09
1.39588e-08
1.23368e-08
8.78891e-09
6.11635e-09
4.33519e-09
3.22864e-09
2.5357e-09
2.09944e-09
1.75475e-09
1.4832e-09
1.22901e-09
1.03628e-09
8.31832e-10
6.96578e-10
5.38529e-10
4.40747e-10
3.10325e-10
2.4165e-10
6.84626e-11
3.22574e-08
3.24094e-08
3.12475e-08
3.6268e-08
3.21391e-08
3.46163e-08
3.79357e-08
2.90148e-08
2.75453e-08
4.21458e-08
2.12778e-08
1.28772e-08
5.30177e-09
2.67201e-08
2.80226e-08
5.62165e-09
3.13803e-09
1.0927e-08
2.22418e-08
2.37446e-08
2.03126e-08
1.60793e-08
1.23421e-08
9.28922e-09
6.88266e-09
5.03367e-09
3.73346e-09
2.8355e-09
2.25671e-09
1.82878e-09
1.51705e-09
1.24471e-09
1.04525e-09
8.38662e-10
7.04116e-10
5.47009e-10
4.52277e-10
3.25165e-10
2.62404e-10
1.36938e-10
2.46318e-08
2.58989e-08
2.48362e-08
2.71622e-08
3.15775e-08
2.82342e-08
2.52186e-08
3.30086e-08
3.0997e-08
1.90025e-08
2.56324e-08
3.47808e-08
3.12127e-08
2.38833e-08
1.55516e-09
8.59461e-09
2.26585e-08
2.66613e-08
2.45624e-08
2.02467e-08
1.60484e-08
1.26034e-08
9.69558e-09
7.20944e-09
5.25931e-09
3.89927e-09
3.05027e-09
2.48773e-09
2.10149e-09
1.76542e-09
1.49471e-09
1.23876e-09
1.04782e-09
8.45603e-10
7.15099e-10
5.60469e-10
4.70587e-10
3.47978e-10
2.92686e-10
1.96175e-10
2.2906e-08
2.29235e-08
2.20897e-08
2.31925e-08
2.26694e-08
2.32721e-08
2.4329e-08
2.08746e-08
2.28036e-08
2.79282e-08
2.32547e-08
1.34566e-08
2.03132e-08
2.67311e-08
2.50328e-08
2.04647e-08
1.76572e-08
1.75007e-08
1.69709e-08
1.5612e-08
1.38162e-08
1.16688e-08
9.43721e-09
7.36018e-09
5.62654e-09
4.27822e-09
3.34125e-09
2.66352e-09
2.19595e-09
1.81138e-09
1.52016e-09
1.25426e-09
1.06145e-09
8.59089e-10
7.31483e-10
5.78705e-10
4.94193e-10
3.76085e-10
3.28221e-10
2.43268e-10
1.8524e-08
1.82576e-08
1.74791e-08
1.85572e-08
2.01979e-08
1.91934e-08
1.89871e-08
2.09953e-08
2.04879e-08
1.82014e-08
2.04494e-08
2.17986e-08
2.0253e-08
1.81497e-08
1.44508e-08
1.42485e-08
1.78538e-08
1.88237e-08
1.743e-08
1.50183e-08
1.23497e-08
9.8401e-09
7.67291e-09
5.91337e-09
4.60147e-09
3.67027e-09
3.03674e-09
2.53418e-09
2.14847e-09
1.79699e-09
1.52145e-09
1.26114e-09
1.07306e-09
8.73362e-10
7.49969e-10
5.99496e-10
5.20677e-10
4.06708e-10
3.65551e-10
2.86798e-10
1.67683e-08
1.61412e-08
1.53845e-08
1.53173e-08
1.56526e-08
1.57255e-08
1.60765e-08
1.57071e-08
1.65045e-08
1.81742e-08
1.79613e-08
1.54939e-08
1.55109e-08
1.78422e-08
1.80978e-08
1.60674e-08
1.38986e-08
1.26898e-08
1.17323e-08
1.07327e-08
9.56683e-09
8.23616e-09
6.86971e-09
5.60306e-09
4.56216e-09
3.72933e-09
3.10504e-09
2.57991e-09
2.17762e-09
1.81471e-09
1.53712e-09
1.27467e-09
1.08841e-09
8.89904e-10
7.70296e-10
6.21672e-10
5.4821e-10
4.37636e-10
4.02175e-10
3.27196e-10
1.3991e-08
1.32835e-08
1.2418e-08
1.2331e-08
1.31202e-08
1.30102e-08
1.32446e-08
1.41888e-08
1.46906e-08
1.47754e-08
1.5472e-08
1.6435e-08
1.58326e-08
1.49987e-08
1.4367e-08
1.34924e-08
1.31043e-08
1.30061e-08
1.22571e-08
1.09379e-08
9.38082e-09
7.81998e-09
6.42654e-09
5.27293e-09
4.37289e-09
3.64547e-09
3.07506e-09
2.57403e-09
2.18213e-09
1.82208e-09
1.54851e-09
1.28671e-09
1.10331e-09
9.06318e-10
7.9049e-10
6.4347e-10
5.74866e-10
4.66901e-10
4.36196e-10
3.635e-10
1.23109e-08
1.15144e-08
1.05842e-08
1.00926e-08
1.02552e-08
1.04151e-08
1.08394e-08
1.1379e-08
1.22013e-08
1.32142e-08
1.3762e-08
1.37664e-08
1.3776e-08
1.40298e-08
1.42058e-08
1.38568e-08
1.28621e-08
1.15674e-08
1.03211e-08
9.13465e-09
7.99626e-09
6.92044e-09
5.93601e-09
5.05135e-09
4.29157e-09
3.62133e-09
3.07098e-09
2.57587e-09
2.18764e-09
1.8276e-09
1.55721e-09
1.2956e-09
1.1151e-09
9.19361e-10
8.07516e-10
6.61436e-10
5.97975e-10
4.91297e-10
4.65852e-10
3.93535e-10
1.06689e-08
9.74395e-09
8.75595e-09
8.16967e-09
8.35742e-09
8.55052e-09
8.99736e-09
9.90806e-09
1.08611e-08
1.17414e-08
1.23926e-08
1.30456e-08
1.35135e-08
1.35199e-08
1.31972e-08
1.26355e-08
1.18935e-08
1.10321e-08
1.00647e-08
9.00197e-09
7.89549e-09
6.81627e-09
5.82672e-09
4.94594e-09
4.1915e-09
3.5314e-09
2.98826e-09
2.50151e-09
2.12109e-09
1.7642e-09
1.50246e-09
1.2413e-09
1.06809e-09
8.71802e-10
7.70214e-10
6.17444e-10
5.71267e-10
4.54068e-10
4.517e-10
3.64934e-10
9.62444e-09
8.64087e-09
7.59587e-09
6.87385e-09
6.81096e-09
7.01738e-09
7.40728e-09
7.99158e-09
8.61403e-09
9.17054e-09
9.51528e-09
9.6992e-09
9.83703e-09
9.88279e-09
9.73468e-09
9.34286e-09
8.72251e-09
7.90029e-09
6.9443e-09
5.94675e-09
4.98149e-09
4.08871e-09
3.28355e-09
2.57268e-09
1.95894e-09
1.43677e-09
1.01577e-09
6.67764e-10
4.28462e-10
2.34169e-10
1.34999e-10
5.76164e-11
3.07044e-11
1.03087e-11
6.91857e-12
1.8863e-12
2.78467e-12
1.02107e-12
2.81735e-12
1.65226e-12
3.00779e-09
2.33084e-09
1.78178e-09
1.47598e-09
1.40129e-09
1.289e-09
1.07757e-09
8.65519e-10
6.21607e-10
3.53875e-10
1.56552e-10
6.1571e-11
2.85663e-11
1.74123e-11
1.18605e-11
7.62365e-12
4.26689e-12
1.87196e-12
5.58724e-13
9.78844e-14
1.78822e-14
3.62359e-14
9.90275e-14
1.63777e-13
2.14221e-13
2.04874e-13
1.93595e-13
1.46109e-13
1.08213e-13
7.82567e-14
4.23023e-14
2.98558e-14
1.27068e-14
7.11086e-15
1.71118e-15
1.0838e-15
1.20985e-18
1.1791e-16
5.72883e-16
7.05312e-16
2.77072e-11
2.24522e-11
1.90627e-11
1.71157e-11
1.73455e-11
1.5581e-11
1.05743e-11
6.00107e-12
2.44981e-12
3.102e-13
1.24375e-14
5.01309e-13
1.62572e-12
2.61818e-12
3.05503e-12
2.77109e-12
2.05021e-12
1.32335e-12
7.78175e-13
4.20269e-13
2.09056e-13
9.6261e-14
4.16648e-14
1.64757e-14
6.29554e-15
2.08735e-15
7.36351e-16
1.81021e-16
4.81625e-17
7.02891e-18
2.94651e-19
1.20789e-20
2.88321e-18
3.56911e-18
1.37697e-17
1.04776e-17
3.77165e-17
1.96905e-17
6.41672e-17
3.47096e-17
2.81977e-14
2.04292e-14
1.88546e-14
1.77512e-14
1.9211e-14
1.53609e-14
7.02922e-15
1.80424e-15
7.12822e-18
3.09654e-15
2.43186e-14
5.25347e-14
6.31854e-14
5.65545e-14
4.04033e-14
2.24836e-14
9.74619e-15
3.4e-15
9.46346e-16
1.87241e-16
1.85724e-17
1.0892e-19
9.45191e-19
7.25338e-18
1.5385e-17
1.96953e-17
2.06305e-17
1.87393e-17
1.58561e-17
1.28614e-17
9.79434e-18
7.51148e-18
5.78928e-18
4.21776e-18
3.39551e-18
2.49589e-18
2.2908e-18
1.41299e-18
1.96753e-18
8.42449e-19
)
;

boundaryField
{
    inlet
    {
        type            calculated;
        value           nonuniform List<scalar> 
20
(
1.49653e-34
5.59666e-33
7.53647e-33
8.63962e-34
1.82756e-33
1.02779e-33
1.35595e-33
1.48435e-33
1.74055e-33
1.88851e-33
1.57324e-33
9.76335e-34
1.65123e-33
2.18791e-33
1.84998e-33
2.64528e-33
1.243e-33
8.16605e-33
5.80636e-33
1.49388e-34
)
;
    }
    outlet
    {
        type            calculated;
        value           nonuniform List<scalar> 
27
(
1.76306e-33
1.50559e-33
1.1796e-33
6.30786e-34
1.13109e-34
6.13576e-36
8.36823e-40
3.64948e-36
8.00552e-35
5.12017e-34
1.08728e-33
1.42688e-33
1.68032e-33
1.89394e-33
2.07388e-33
2.20512e-33
4.12569e-34
3.99919e-36
2.97927e-38
2.09029e-41
8.74662e-42
2.36391e-38
3.20394e-36
3.38319e-34
2.27461e-33
2.15291e-33
1.97692e-33
)
;
    }
    lowerWall
    {
        type            fixedValue;
        value           uniform 0;
    }
    upperWall
    {
        type            fixedValue;
        value           uniform 0;
    }
    defaultFaces
    {
        type            empty;
    }
}


// ************************************************************************* //
