/*--------------------------------*- C++ -*----------------------------------*\
| =========                 |                                                 |
| \\      /  F ield         | OpenFOAM: The Open Source CFD Toolbox           |
|  \\    /   O peration     | Version:  2112                                  |
|   \\  /    A nd           | Website:  www.openfoam.com                      |
|    \\/     M anipulation  |                                                 |
\*---------------------------------------------------------------------------*/
FoamFile
{
    version     2.0;
    format      ascii;
    arch        "LSB;label=32;scalar=64";
    class       volScalarField;
    location    "0.16";
    object      p;
}
// * * * * * * * * * * * * * * * * * * * * * * * * * * * * * * * * * * * * * //

dimensions      [0 2 -2 0 0 0 0];

internalField   nonuniform List<scalar> 
1880
(
0.0035804
0.00344029
0.00334644
0.00330141
0.00327212
0.0032469
0.00322982
0.00321137
0.00318695
0.00316962
0.00316037
0.00314988
0.0031336
0.00312539
0.0031245
0.00313768
0.00315168
0.00318094
0.00321067
0.00325715
0.00330801
0.00337612
0.00345604
0.003559
0.00367883
0.00383747
0.00401707
0.00426644
0.00451781
0.00492485
0.00339917
0.00336371
0.0033221
0.00328867
0.00325638
0.00322943
0.00321767
0.00320522
0.0031802
0.00316042
0.00315219
0.00314424
0.00312734
0.00311881
0.00311844
0.00313251
0.00314572
0.00317239
0.00320075
0.00324218
0.00329184
0.00334992
0.00343036
0.00351394
0.0036354
0.0037591
0.00392144
0.00411631
0.0042689
0.00457942
0.00336609
0.0033426
0.00331105
0.00328285
0.00325103
0.00322259
0.00321215
0.00320165
0.00317578
0.00315416
0.00314751
0.00314238
0.0031283
0.00311876
0.00311876
0.00312814
0.00313973
0.00315746
0.00318299
0.00321471
0.00325872
0.00330601
0.00337108
0.00344185
0.00353014
0.00363074
0.00374026
0.0038568
0.00396495
0.00403657
0.00330835
0.00329499
0.00327643
0.00326023
0.00323444
0.00320668
0.00319705
0.00318927
0.00316513
0.00314347
0.00313677
0.00313233
0.00311822
0.00310747
0.00310586
0.00311258
0.00312115
0.0031336
0.00315383
0.00317763
0.00321287
0.00324799
0.00329884
0.00334825
0.00341361
0.00347955
0.00354341
0.00361437
0.00363785
0.00365714
0.00327986
0.00327067
0.00325747
0.00324681
0.00322433
0.00319726
0.00318771
0.00318067
0.00315696
0.00313478
0.00312766
0.00312298
0.0031087
0.00309605
0.00309252
0.00309492
0.00310042
0.00310533
0.0031202
0.00313334
0.00315978
0.00318085
0.00321635
0.00324647
0.00328617
0.00331998
0.00334911
0.00336646
0.00335243
0.00331811
0.00325299
0.00324529
0.00323478
0.00322769
0.0032086
0.00318339
0.00317438
0.00316782
0.00314464
0.00312253
0.00311487
0.00310943
0.00309392
0.00307932
0.00307296
0.0030717
0.00307256
0.00307175
0.00307898
0.00308434
0.00309853
0.00310961
0.00312604
0.00314142
0.00315421
0.00316365
0.00315902
0.00314086
0.00309664
0.00301851
0.00323288
0.00322641
0.00321783
0.00321305
0.00319617
0.00317223
0.0031635
0.00315689
0.00313358
0.00311099
0.00310238
0.0030956
0.00307848
0.00306145
0.00305209
0.00304656
0.00304277
0.00303532
0.00303565
0.00303155
0.00303587
0.00303419
0.00303584
0.00303423
0.0030258
0.00301221
0.00298216
0.00293561
0.00286477
0.00276484
0.00321689
0.00321097
0.00320331
0.0031996
0.00318381
0.0031606
0.00315199
0.00314507
0.00312132
0.00309802
0.00308827
0.00307994
0.00306082
0.00304121
0.00302848
0.00301892
0.00300997
0.00299686
0.00298942
0.00297794
0.0029709
0.00295964
0.00294565
0.00293009
0.00290327
0.00286894
0.0028212
0.00274983
0.00266321
0.00254347
0.00320457
0.00319889
0.00319165
0.00318846
0.00317319
0.00315024
0.00314147
0.00313403
0.00310955
0.00308524
0.00307413
0.00306397
0.00304265
0.00302022
0.00300407
0.00299038
0.00297646
0.00295761
0.00294314
0.00292397
0.00290733
0.00288603
0.00285916
0.00283071
0.0027881
0.00273845
0.00267419
0.00258693
0.00248481
0.00235389
0.00319568
0.00319003
0.00318286
0.00317969
0.00316437
0.00314118
0.0031319
0.00312365
0.00309813
0.0030725
0.00305978
0.00304762
0.00302395
0.00299863
0.00297902
0.00296142
0.00294256
0.00291856
0.00289721
0.00287133
0.00284565
0.0028154
0.00277766
0.00273716
0.00268331
0.00261923
0.00254363
0.00244343
0.00233033
0.00219218
0.00319017
0.00318438
0.00317694
0.00317336
0.0031575
0.00313358
0.00312341
0.00311408
0.0030873
0.00306011
0.00304562
0.00303135
0.00300526
0.00297702
0.00295402
0.00293266
0.0029092
0.00288038
0.00285282
0.00282075
0.00278716
0.00274895
0.00270187
0.00265174
0.00258782
0.00251352
0.00242778
0.0023193
0.00219757
0.0020547
0.0031881
0.00318203
0.00317402
0.00316968
0.00315289
0.00312787
0.00311651
0.00310589
0.00307766
0.00304868
0.00303227
0.00301579
0.00298724
0.0029561
0.00292983
0.00290493
0.00287713
0.00284394
0.00281074
0.00277317
0.00273278
0.00268742
0.00263305
0.00257426
0.00250298
0.00242008
0.00232686
0.0022124
0.00208458
0.00193923
0.00318977
0.00318314
0.0031741
0.00316834
0.00314985
0.00312315
0.00311029
0.00309819
0.00306833
0.00303746
0.00301907
0.00300038
0.00296939
0.00293545
0.00290616
0.00287805
0.0028464
0.00280937
0.00277129
0.00272901
0.00268286
0.00263157
0.00257114
0.00250557
0.0024281
0.00233907
0.00223976
0.00212149
0.00198983
0.00184252
0.00319593
0.00318867
0.00317844
0.00317108
0.00315065
0.00312202
0.00310749
0.00309377
0.00306199
0.00302882
0.00300824
0.00298719
0.00295357
0.00291675
0.00288453
0.00285338
0.00281822
0.00277776
0.00273545
0.00268909
0.00263818
0.00258185
0.00251668
0.00244549
0.00236335
0.00226967
0.00216592
0.00204517
0.00191105
0.0017629
0.00320651
0.00319768
0.00318493
0.00317444
0.00315081
0.0031196
0.00310317
0.00308759
0.00305373
0.00301836
0.00299562
0.00297233
0.00293665
0.00289747
0.00286288
0.00282934
0.00279144
0.00274831
0.0027027
0.00265317
0.00259857
0.0025383
0.00246946
0.00239401
0.00230827
0.00221136
0.00210434
0.00198214
0.00184683
0.00169835
0.00322605
0.00321558
0.00319978
0.00318516
0.00315733
0.00312324
0.00310502
0.00308745
0.00305122
0.00301359
0.00298889
0.0029634
0.00292517
0.00288324
0.00284549
0.0028092
0.00276854
0.00272295
0.00267458
0.00262241
0.00256489
0.00250144
0.00242983
0.00235112
0.00226274
0.00216357
0.00205432
0.00193138
0.0017957
0.00164738
0.00324694
0.00323214
0.00321065
0.00318997
0.00315806
0.00312223
0.00310267
0.00308285
0.00304439
0.00300493
0.00297806
0.00294955
0.00290818
0.00286381
0.00282505
0.00278745
0.00274582
0.0026992
0.00264938
0.00259573
0.00253639
0.00247084
0.00239738
0.0023164
0.00222621
0.00212563
0.00201501
0.00189188
0.00175642
0.00160869
0.00330023
0.00327508
0.00324019
0.00320696
0.00316837
0.00313109
0.00310975
0.00308606
0.00304446
0.00300354
0.00297503
0.0029439
0.00290027
0.00285433
0.00281346
0.00277353
0.00272928
0.00268116
0.00263014
0.00257531
0.00251457
0.00244747
0.00237272
0.00229012
0.00219873
0.00209727
0.00198589
0.00186285
0.00172797
0.00158122
0.00332894
0.00329177
0.00324666
0.00320784
0.00316819
0.00313167
0.00310819
0.00308154
0.00303961
0.00299881
0.00296715
0.00293066
0.00288265
0.00283386
0.00279138
0.00275175
0.00270917
0.00266312
0.00261293
0.00255857
0.00249774
0.00243019
0.00235508
0.00227161
0.00217963
0.00207793
0.00196621
0.00184363
0.0017095
0.00156322
0.00350856
0.00336656
0.00326892
0.00321823
0.00318125
0.00314604
0.00311668
0.00308348
0.00304136
0.00300242
0.00296869
0.00292895
0.00288035
0.00283154
0.00278739
0.00274543
0.00270175
0.00265566
0.0026055
0.00255098
0.00248988
0.00242205
0.00234659
0.00226281
0.00217039
0.00206869
0.00195687
0.00183488
0.00170204
0.00155809
0.00502166
0.00439331
0.00397492
0.00303776
0.00233152
0.00220491
0.000897961
-0.000302736
-0.00131403
-0.00319028
0.0044269
0.00391064
0.00344635
0.00248338
0.00187971
0.00164541
9.14706e-05
-0.00106267
-0.00190178
-0.00326461
0.00403689
0.00360615
0.00309252
0.00246857
0.00183482
0.00137768
0.000170092
-0.000785968
-0.00181138
-0.00289281
0.00360769
0.00315322
0.00271228
0.0020804
0.0014886
0.000955664
9.12882e-05
-0.000917222
-0.00172957
-0.00275365
0.00323478
0.00288057
0.00242176
0.00192678
0.00138398
0.00084044
6.27314e-05
-0.000814351
-0.00157762
-0.00240902
0.00291848
0.00255904
0.00215742
0.00166097
0.00115676
0.000598166
-5.73628e-05
-0.00084315
-0.00148766
-0.00217922
0.00263904
0.00233368
0.00194544
0.00150883
0.00104984
0.000532659
-6.74163e-05
-0.000741522
-0.0013031
-0.00188496
0.00240288
0.00211358
0.00175579
0.00134254
0.000911207
0.000423393
-0.000109417
-0.000697886
-0.0011973
-0.00168374
0.00220187
0.00193963
0.00160574
0.00122848
0.000830274
0.000387262
-9.38765e-05
-0.000601128
-0.00103854
-0.00145849
0.00203176
0.00178828
0.00147587
0.00112375
0.000754097
0.000343631
-8.94541e-05
-0.000533242
-0.000928302
-0.00129496
0.00189104
0.00166248
0.00137295
0.0010494
0.000704326
0.00032888
-5.7904e-05
-0.00044805
-0.000802085
-0.00113002
0.00177302
0.00155777
0.00128869
0.000985692
0.000665772
0.000320199
-3.11424e-05
-0.000379751
-0.000702474
-0.000999208
0.0016766
0.00147156
0.00122105
0.000940304
0.000641635
0.000323732
4.41289e-06
-0.000309882
-0.000604504
-0.000877076
0.00159763
0.00140146
0.0011678
0.000904825
0.000625935
0.000331952
3.78664e-05
-0.000250363
-0.000522748
-0.000775648
0.00153442
0.00134548
0.0011256
0.000879743
0.000618284
0.000344902
7.19998e-05
-0.00019494
-0.00044887
-0.000685844
0.00148493
0.00130181
0.00109382
0.000862423
0.00061622
0.000360139
0.000104127
-0.000146996
-0.000386611
-0.000611105
0.00144742
0.00126862
0.00106972
0.000850637
0.000617843
0.0003762
0.000133553
-0.00010523
-0.000333634
-0.000548275
0.00142183
0.00124657
0.00105466
0.000845382
0.000623423
0.000393086
0.000160207
-7.00413e-05
-0.000290486
-0.000497941
0.00140442
0.00123166
0.00104492
0.000843493
0.00063028
0.000408682
0.00018343
-4.05079e-05
-0.000255904
-0.000458418
0.00140236
0.00123228
0.00104829
0.000850383
0.000640867
0.000422927
0.000201515
-1.93658e-05
-0.00023283
-0.000435658
-0.00650523
-0.00684094
-0.00754841
-0.00938254
-0.0112056
-0.0118887
-0.0107343
-0.00815976
-0.0049058
-0.00196541
0.000231926
0.00165754
0.00231927
0.00251707
0.00243205
0.00222144
0.00197229
0.00172695
0.00150278
0.00130491
0.00113333
0.000985748
0.000859344
0.000750993
0.000657872
0.000577383
0.000507343
0.000445855
0.000391403
0.00034271
0.000298732
0.00025866
0.000221747
0.000187458
0.00015526
0.000124777
9.55988e-05
6.74793e-05
4.01017e-05
1.32735e-05
-0.00660242
-0.00688289
-0.00767724
-0.00979778
-0.0120741
-0.012857
-0.0116387
-0.00881135
-0.00538283
-0.00227202
9.31239e-06
0.00149848
0.00220857
0.00243113
0.00236124
0.00216175
0.00192259
0.00168634
0.00147009
0.00127901
0.00111305
0.000970169
0.000847424
0.000741906
0.000650917
0.000572002
0.000503127
0.000442517
0.000388729
0.000340562
0.000296991
0.000257257
0.000220617
0.000186558
0.000154559
0.000124239
9.52112e-05
6.72143e-05
3.99563e-05
1.32384e-05
-0.00603833
-0.0069509
-0.0082091
-0.0111265
-0.0139696
-0.0149834
-0.0134496
-0.0101595
-0.00632763
-0.00291205
-0.000452383
0.00113663
0.00194364
0.00222147
0.00218954
0.00202043
0.00180831
0.00159612
0.00140046
0.00122613
0.00107329
0.000940327
0.000824944
0.000724834
0.000637813
0.000561877
0.000495229
0.000436301
0.000383783
0.0003366
0.000293807
0.000254693
0.00021857
0.000184935
0.000153305
0.000123298
9.45548e-05
6.6803e-05
3.97596e-05
1.32149e-05
-0.00633039
-0.00715763
-0.0086039
-0.0124305
-0.0163045
-0.0176528
-0.0158567
-0.0118714
-0.00749542
-0.00367637
-0.0010641
0.000638768
0.0015516
0.00190496
0.00193076
0.00181189
0.00164475
0.00147044
0.0013048
0.00115355
0.0010181
0.000898097
0.000792409
0.000699574
0.000618029
0.00054623
0.000482735
0.000426248
0.000375642
0.000329981
0.000288422
0.000250311
0.000215029
0.000182097
0.000151072
0.000121588
9.33062e-05
6.5964e-05
3.92811e-05
1.30669e-05
-0.00572621
-0.00699033
-0.00870035
-0.0135874
-0.0183072
-0.0196478
-0.0172533
-0.0127292
-0.00819362
-0.00438913
-0.00170836
2.76619e-05
0.00103161
0.00148207
0.00159089
0.00154088
0.00143319
0.00130904
0.00118271
0.00106103
0.000947495
0.000843736
0.000750199
0.000666537
0.000591962
0.000525494
0.000466112
0.000412835
0.000364761
0.00032112
0.000281199
0.000244425
0.000210258
0.000178263
0.000148038
0.00011925
9.15799e-05
6.47855e-05
3.85994e-05
1.28462e-05
-0.0058741
-0.00686883
-0.0086228
-0.0135054
-0.0183581
-0.0196229
-0.0171845
-0.0126376
-0.00830365
-0.00479677
-0.00229762
-0.000649683
0.000373098
0.000913541
0.00115185
0.00121469
0.00119102
0.00112701
0.00104527
0.000956961
0.000867885
0.000782119
0.000702003
0.000628463
0.000561602
0.000501078
0.000446332
0.000396721
0.00035158
0.000310314
0.000272337
0.000237172
0.000204353
0.0001735
0.000144255
0.00011632
8.94055e-05
6.32906e-05
3.77288e-05
1.25603e-05
-0.00630454
-0.00723925
-0.00752717
-0.0125711
-0.0171328
-0.0184958
-0.0162908
-0.0120272
-0.00803331
-0.00489819
-0.00260295
-0.00110405
-0.000187129
0.000325395
0.000619963
0.000812447
0.000912367
0.000929058
0.000897853
0.000844532
0.000780596
0.000713405
0.000647341
0.000584676
0.000526356
0.000472584
0.000423188
0.000377836
0.000336118
0.000297625
0.000261922
0.000228637
0.000197393
0.000167875
0.000139778
0.000112844
8.68181e-05
6.15055e-05
3.66852e-05
1.22152e-05
-0.00582936
-0.00468683
-0.00654025
-0.0111066
-0.0154174
-0.0168827
-0.0149633
-0.0111457
-0.00749716
-0.00474901
-0.00269897
-0.00129282
-0.000451652
1.57133e-05
0.000298396
0.000506044
0.00064824
0.000723148
0.000743828
0.000728079
0.000690728
0.000642669
0.000590942
0.000539153
0.000489175
0.000441959
0.000397854
0.000356848
0.00031872
0.000283206
0.000249994
0.000218806
0.000189342
0.000161346
0.000134566
0.000108787
8.37907e-05
5.94117e-05
3.54584e-05
1.18086e-05
-0.00486544
-0.0058613
-0.00660629
-0.00975805
-0.013107
-0.0141452
-0.0124945
-0.00939955
-0.00647047
-0.00428982
-0.00260666
-0.00136472
-0.000587444
-0.00013702
0.00014141
0.000344969
0.000490295
0.00057746
0.000613382
0.000615664
0.000597179
0.000565316
0.000526841
0.000486121
0.000445547
0.000406206
0.000368554
0.000332766
0.000298865
0.000266806
0.000236452
0.000207652
0.000180204
0.000153929
0.000128639
0.000104166
8.0338e-05
5.70206e-05
3.40554e-05
1.1343e-05
-0.00418223
-0.00483836
-0.00569853
-0.00778782
-0.0100069
-0.0107314
-0.00957567
-0.00742929
-0.00543113
-0.00383374
-0.00252843
-0.00149359
-0.000778173
-0.000310446
9.27472e-06
0.000221583
0.000354613
0.000440194
0.000497255
0.000519703
0.00051527
0.000496325
0.000470266
0.000439519
0.000406493
0.000373025
0.000340238
0.000308688
0.000278519
0.000249717
0.00022217
0.000195785
0.000170423
0.000145956
0.000122247
9.91717e-05
7.6599e-05
5.44276e-05
3.25324e-05
1.08374e-05
-0.00357267
-0.0043062
-0.00506301
-0.00632979
-0.00762239
-0.00805284
-0.00745851
-0.00609925
-0.00464267
-0.00338751
-0.00232906
-0.00151554
-0.000927617
-0.000489658
-0.00019082
1.52073e-05
0.000219883
0.000386198
0.000455558
0.000456969
0.000446521
0.000429467
0.000407319
0.000383475
0.000358688
0.0003333
0.000307599
0.000281864
0.000256373
0.00023136
0.000206943
0.000183186
0.000160058
0.00013751
0.000115475
9.38769e-05
7.26321e-05
5.16743e-05
3.09143e-05
1.03e-05
-0.00304196
-0.00369315
-0.00431962
-0.00518616
-0.00597409
-0.00624459
-0.00593192
-0.00507657
-0.00398416
-0.00300284
-0.00218903
-0.00152396
-0.00100124
-0.00061179
-0.000358521
-0.000204858
-7.59052e-05
5.53241e-05
0.000189654
0.000296296
0.000350314
0.000367179
0.000361849
0.000345789
0.00032522
0.000302908
0.000280139
0.000257511
0.000235199
0.000213247
0.000191631
0.000170358
0.000149417
0.000128794
0.00010846
8.83793e-05
6.85063e-05
4.88073e-05
2.92281e-05
9.73991e-06
-0.00265538
-0.00317322
-0.00371071
-0.0043615
-0.00491614
-0.00511349
-0.00486936
-0.00428856
-0.00352947
-0.00274054
-0.00206432
-0.00150732
-0.00101965
-0.000600946
-0.000357237
-0.000255627
-0.000128937
3.70516e-05
0.000165615
0.000239141
0.000271357
0.000282092
0.000283046
0.000278537
0.000270226
0.00025885
0.000244973
0.000229159
0.000212016
0.000194074
0.000175698
0.000157131
0.000138497
0.000119866
0.000101279
8.27503e-05
6.42799e-05
4.58691e-05
2.74993e-05
9.16558e-06
-0.00230979
-0.00273771
-0.0031943
-0.00369236
-0.00406635
-0.00419053
-0.00405946
-0.00367097
-0.00309087
-0.00247886
-0.00192626
-0.00145594
-0.00107112
-0.000750104
-0.000534677
-0.000382519
-0.000187105
2.60387e-05
0.000159045
0.000219345
0.000245239
0.000255911
0.000257482
0.000252787
0.000243947
0.000232541
0.00021961
0.000205746
0.000191165
0.000175978
0.000160256
0.000144111
0.000127644
0.00011094
9.40741e-05
7.70887e-05
6.00225e-05
4.29064e-05
2.57552e-05
8.58605e-06
-0.00203492
-0.00239255
-0.00276367
-0.00315701
-0.00346417
-0.00356444
-0.00344546
-0.00315915
-0.0027503
-0.00228411
-0.0018266
-0.00141827
-0.00104495
-0.0007354
-0.000541769
-0.000397988
-0.000269695
-0.000148953
-4.26616e-05
4.139e-05
0.000101072
0.000140607
0.000165607
0.000180239
0.000187274
0.000188459
0.000185057
0.000178113
0.000168582
0.000157239
0.000144613
0.000131064
0.000116826
0.000102064
8.69138e-05
7.14623e-05
5.57903e-05
3.99603e-05
2.40203e-05
8.00955e-06
-0.00178766
-0.00209312
-0.00239983
-0.00271719
-0.00294605
-0.00303557
-0.00297355
-0.00276639
-0.00243837
-0.00206366
-0.00169845
-0.00136597
-0.0010861
-0.000845336
-0.000615978
-0.000424475
-0.000251407
-0.000108761
-5.52537e-06
6.28189e-05
0.000107213
0.000135621
0.000152777
0.000161854
0.000165232
0.000164685
0.000161379
0.000155967
0.000148751
0.000139963
0.000129817
0.000118543
0.000106356
9.34297e-05
7.99268e-05
6.59615e-05
5.16476e-05
3.70743e-05
2.23202e-05
7.44455e-06
-0.00157959
-0.00184621
-0.00210596
-0.00236611
-0.00256702
-0.00264336
-0.00259347
-0.00244041
-0.00219874
-0.00190656
-0.00160797
-0.00132181
-0.00105362
-0.000813849
-0.000621648
-0.000466019
-0.000344103
-0.000235207
-0.000140756
-6.46421e-05
-5.08682e-06
4.07346e-05
7.50748e-05
9.98109e-05
0.000116535
0.000126559
0.000131101
0.000131324
0.000128281
0.000122769
0.000115339
0.000106392
9.62323e-05
8.50927e-05
7.31826e-05
6.06511e-05
4.76472e-05
3.42867e-05
2.06777e-05
6.89871e-06
-0.00139473
-0.00163216
-0.00185581
-0.00207247
-0.00223791
-0.00231333
-0.00228773
-0.0021764
-0.00198983
-0.00175219
-0.00149852
-0.00125803
-0.00104454
-0.000852983
-0.000667267
-0.000504532
-0.00036066
-0.000236657
-0.000137977
-6.37516e-05
-9.00406e-06
3.10513e-05
5.99261e-05
8.02884e-05
9.42543e-05
0.000103404
0.000108747
0.000110868
0.000110176
0.000107059
0.000101882
9.49868e-05
8.66781e-05
7.7199e-05
6.67846e-05
5.56071e-05
4.38449e-05
3.16361e-05
1.91156e-05
6.37961e-06
-0.00123785
-0.00145282
-0.00165201
-0.00183843
-0.00198499
-0.00205527
-0.00204348
-0.00196097
-0.00181462
-0.00162541
-0.00142362
-0.00122082
-0.00102511
-0.000835429
-0.000665645
-0.000524121
-0.00040549
-0.000304515
-0.000217285
-0.000144072
-8.37515e-05
-3.46177e-05
4.6602e-06
3.51532e-05
5.78811e-05
7.3886e-05
8.43272e-05
9.0299e-05
9.26872e-05
9.21589e-05
8.92257e-05
8.43019e-05
7.77402e-05
6.98175e-05
6.08016e-05
5.08896e-05
4.02882e-05
2.91566e-05
1.76544e-05
5.89411e-06
-0.0011018
-0.00129959
-0.00147888
-0.00164187
-0.00177136
-0.0018405
-0.00183982
-0.00178073
-0.00167034
-0.00151795
-0.0013424
-0.00116569
-0.000998824
-0.000842324
-0.000694346
-0.000557489
-0.00043658
-0.000328566
-0.000236576
-0.000161555
-0.000101572
-5.40731e-05
-1.67305e-05
1.2428e-05
3.49779e-05
5.20256e-05
6.43344e-05
7.25173e-05
7.71407e-05
7.87197e-05
7.77199e-05
7.45454e-05
6.95582e-05
6.30506e-05
5.53125e-05
4.65598e-05
3.70236e-05
2.6881e-05
1.63136e-05
5.44876e-06
-0.000986508
-0.00117137
-0.00133705
-0.00148363
-0.00160088
-0.00166787
-0.00167776
-0.00163682
-0.00154924
-0.00142394
-0.00128071
-0.00113387
-0.000986474
-0.000840137
-0.000699159
-0.000571698
-0.000460134
-0.000363211
-0.000279413
-0.000207138
-0.000145664
-9.41237e-05
-5.16313e-05
-1.73737e-05
9.56305e-06
3.01824e-05
4.54478e-05
5.6165e-05
6.3019e-05
6.65826e-05
6.73572e-05
6.57683e-05
6.22011e-05
5.69676e-05
5.0379e-05
4.26696e-05
3.4092e-05
2.48387e-05
1.51109e-05
5.04956e-06
-0.000888109
-0.00106361
-0.00121868
-0.00135292
-0.00146075
-0.00152668
-0.00154352
-0.00151608
-0.00144961
-0.00134943
-0.00122782
-0.00109751
-0.000966124
-0.000836136
-0.000710737
-0.000594013
-0.000487609
-0.000391897
-0.000306806
-0.000233
-0.000170439
-0.000118118
-7.47579e-05
-3.92254e-05
-1.05688e-05
1.20339e-05
2.93424e-05
4.20332e-05
5.07309e-05
5.59837e-05
5.82918e-05
5.80835e-05
5.57577e-05
5.16411e-05
4.60611e-05
3.92674e-05
3.15308e-05
2.30565e-05
1.40627e-05
4.7022e-06
-0.000806098
-0.000975164
-0.00112297
-0.00124917
-0.00134949
-0.00141382
-0.00143665
-0.00142091
-0.00136976
-0.00128723
-0.00118415
-0.00107232
-0.000956994
-0.000839339
-0.000722603
-0.000611262
-0.000508524
-0.000415505
-0.000332348
-0.000259417
-0.000196352
-0.000142473
-9.7037e-05
-5.92874e-05
-2.845e-05
-3.77659e-06
1.54598e-05
2.99241e-05
4.02412e-05
4.6957e-05
5.05847e-05
5.15584e-05
5.02935e-05
4.71305e-05
4.24096e-05
3.63961e-05
2.93742e-05
2.15596e-05
1.31848e-05
4.41293e-06
-0.000738391
-0.000903248
-0.00104589
-0.00116599
-0.00126111
-0.00132455
-0.00135182
-0.00134464
-0.0013059
-0.00123908
-0.00115231
-0.00105447
-0.000950436
-0.000842374
-0.000733544
-0.000628117
-0.00052919
-0.000438179
-0.00035568
-0.000282226
-0.000217921
-0.00016246
-0.000115291
-7.57549e-05
-4.31477e-05
-1.67718e-05
4.06227e-06
2.00014e-05
3.16636e-05
3.95906e-05
4.43095e-05
4.62555e-05
4.58626e-05
4.34818e-05
3.94638e-05
3.40876e-05
2.76483e-05
2.03682e-05
1.24895e-05
4.18577e-06
-0.0006846
-0.000847582
-0.000987208
-0.00110294
-0.00119392
-0.00125607
-0.00128645
-0.00128647
-0.00125836
-0.00120442
-0.00113049
-0.00104393
-0.000949409
-0.000849294
-0.000746574
-0.000645167
-0.000548349
-0.00045808
-0.000375465
-0.000301236
-0.000235703
-0.00017875
-0.000129987
-8.88747e-05
-5.47398e-05
-2.6926e-05
-4.77615e-06
1.2358e-05
2.50927e-05
3.39751e-05
3.95493e-05
4.22477e-05
4.253e-05
4.07491e-05
3.727e-05
3.23801e-05
2.6384e-05
1.95069e-05
1.19953e-05
4.03076e-06
-0.000642977
-0.000805809
-0.000944957
-0.00105866
-0.00114667
-0.00120762
-0.00124031
-0.0012456
-0.00122512
-0.00118153
-0.00111937
-0.00104336
-0.000956835
-0.000862482
-0.000763643
-0.000664219
-0.00056777
-0.000476828
-0.000392981
-0.000317205
-0.000249974
-0.000191316
-0.000140942
-9.83993e-05
-6.29606e-05
-3.3988e-05
-1.08281e-05
7.19559e-06
2.07007e-05
3.02558e-05
3.64281e-05
3.96443e-05
4.03966e-05
3.90221e-05
3.5909e-05
3.1344e-05
2.56462e-05
1.90315e-05
1.17643e-05
3.98825e-06
-0.000622654
-0.000786027
-0.000924197
-0.00103664
-0.00112303
-0.00118287
-0.00121636
-0.00122425
-0.00120751
-0.00116878
-0.00111213
-0.00104122
-0.000958911
-0.00086793
-0.00077156
-0.000673667
-0.000577822
-0.000486784
-0.000402424
-0.0003259
-0.000257807
-0.000198259
-0.000147008
-0.000103502
-6.73304e-05
-3.77251e-05
-1.40218e-05
4.48155e-06
1.83952e-05
2.83155e-05
3.47966e-05
3.82864e-05
3.92756e-05
3.8109e-05
3.51821e-05
3.07777e-05
2.52286e-05
1.87361e-05
1.15669e-05
3.94006e-06
)
;

boundaryField
{
    inlet
    {
        type            zeroGradient;
    }
    outlet
    {
        type            fixedValue;
        value           uniform 0;
    }
    lowerWall
    {
        type            zeroGradient;
    }
    upperWall
    {
        type            zeroGradient;
    }
    defaultFaces
    {
        type            empty;
    }
}


// ************************************************************************* //
