/*--------------------------------*- C++ -*----------------------------------*\
| =========                 |                                                 |
| \\      /  F ield         | OpenFOAM: The Open Source CFD Toolbox           |
|  \\    /   O peration     | Version:  2112                                  |
|   \\  /    A nd           | Website:  www.openfoam.com                      |
|    \\/     M anipulation  |                                                 |
\*---------------------------------------------------------------------------*/
FoamFile
{
    version     2.0;
    format      ascii;
    arch        "LSB;label=32;scalar=64";
    class       volScalarField;
    location    "0.37";
    object      nut;
}
// * * * * * * * * * * * * * * * * * * * * * * * * * * * * * * * * * * * * * //

dimensions      [0 2 -1 0 0 0 0];

internalField   nonuniform List<scalar> 
1880
(
3.51604e-11
3.33942e-12
5.88741e-13
2.85756e-14
2.44943e-14
1.41209e-13
6.91283e-15
3.48423e-14
4.67784e-14
5.53395e-14
1.47344e-14
2.81644e-14
5.60759e-14
7.97403e-15
1.05358e-14
7.90455e-15
1.79541e-13
4.92954e-13
3.55598e-13
5.70225e-13
6.30512e-14
3.16653e-12
6.39359e-12
5.14249e-12
1.27368e-11
2.64343e-12
5.27128e-11
4.61703e-11
1.62438e-10
8.06601e-10
4.25287e-09
5.57415e-09
1.63268e-09
1.66014e-10
3.2887e-11
5.3104e-11
1.67455e-12
1.04175e-11
1.9315e-12
3.28908e-12
3.57371e-12
1.38094e-12
4.3576e-12
3.29485e-12
3.87618e-11
2.00273e-11
1.69792e-10
5.63065e-11
2.17516e-10
1.42273e-10
7.65616e-11
5.0714e-10
1.09368e-10
2.21385e-10
7.74164e-10
3.01047e-10
5.11509e-10
2.17672e-09
1.99322e-09
1.44147e-09
2.42464e-09
2.24561e-09
1.13966e-09
5.64063e-10
1.52257e-09
2.50632e-13
2.40095e-09
8.89979e-11
1.01472e-09
1.49549e-09
3.03286e-09
1.9513e-10
3.73964e-09
2.4548e-10
6.46004e-12
4.00879e-09
6.94634e-12
2.8585e-09
3.2647e-09
1.08276e-09
4.63776e-09
6.06693e-09
1.08965e-09
8.83836e-09
5.4459e-09
1.60154e-09
1.87852e-08
8.68837e-09
5.99282e-09
2.86293e-08
1.04825e-10
3.79452e-11
5.1146e-09
1.99297e-09
1.03462e-08
3.14642e-09
4.39731e-09
5.57805e-10
1.49448e-09
3.69494e-10
1.40291e-08
1.93565e-09
2.40341e-08
5.76973e-09
6.87559e-09
3.2008e-09
6.24288e-09
5.1862e-09
2.04613e-09
2.88811e-09
3.91935e-10
8.21175e-09
6.3407e-09
1.27052e-08
1.22853e-08
1.16397e-08
2.03624e-08
2.34563e-08
2.55296e-08
1.83512e-08
1.04979e-09
5.42353e-10
4.45026e-09
4.96711e-10
2.73838e-09
1.51727e-09
2.49646e-09
2.03985e-10
2.5545e-10
1.2916e-09
1.1641e-08
2.25591e-09
2.12676e-08
5.00688e-09
3.54576e-09
3.90386e-09
1.5278e-08
6.71721e-09
2.19808e-08
3.75958e-09
1.64213e-13
7.65247e-09
2.1018e-09
1.0869e-08
6.9611e-09
1.11448e-08
1.39935e-08
1.96664e-08
1.73069e-08
2.96275e-08
3.31051e-10
1.98688e-09
1.88542e-09
1.90305e-09
5.31948e-10
2.97369e-09
4.7274e-10
1.39729e-09
8.62985e-10
3.91809e-10
4.19698e-11
7.34518e-10
7.26565e-09
7.60917e-10
3.038e-11
1.23233e-09
1.6041e-09
2.31847e-09
1.44763e-09
6.17288e-09
4.36758e-09
6.3347e-09
6.45484e-09
9.18867e-09
1.02002e-08
1.29351e-08
1.46602e-08
1.68473e-08
1.91258e-08
1.99297e-08
8.88853e-10
2.88543e-09
3.85464e-09
1.00006e-09
2.63916e-09
1.38254e-09
1.95854e-09
2.55424e-10
1.09298e-09
8.757e-10
6.3864e-10
7.67588e-10
6.91739e-10
1.03636e-09
1.38534e-09
1.54642e-09
3.19918e-09
2.01721e-09
3.88591e-09
4.15068e-09
5.38523e-09
5.50652e-09
6.57423e-09
7.83071e-09
1.003e-08
1.00858e-08
1.30276e-08
1.52978e-08
1.6349e-08
2.10825e-08
5.49833e-10
2.40975e-09
2.49799e-09
9.42695e-10
1.56235e-09
1.53407e-09
1.63474e-09
3.70088e-10
1.90986e-09
2.942e-10
1.76531e-09
2.2281e-09
2.08114e-09
1.49101e-09
3.1916e-09
3.53557e-09
4.44102e-09
3.00086e-09
5.17746e-09
6.05986e-09
6.71627e-09
6.31565e-09
7.81184e-09
8.7537e-09
1.07289e-08
1.07649e-08
1.34402e-08
1.41535e-08
1.75949e-08
1.74289e-08
5.63459e-10
2.17482e-09
2.09579e-09
7.23816e-10
1.25678e-09
1.28406e-09
1.34842e-09
9.79091e-10
2.12677e-09
1.04816e-09
2.22611e-09
2.19522e-09
3.05622e-09
2.1389e-09
3.9663e-09
4.3276e-09
4.56431e-09
3.01982e-09
5.20452e-09
5.14341e-09
6.36638e-09
6.38746e-09
7.84885e-09
8.45037e-09
1.03475e-08
1.05285e-08
1.248e-08
1.39679e-08
1.59628e-08
1.73824e-08
4.24475e-10
1.75175e-09
1.58283e-09
7.79644e-10
1.30128e-09
1.4332e-09
1.69813e-09
1.33622e-09
2.2673e-09
1.43052e-09
2.8562e-09
3.3687e-09
3.59051e-09
2.62884e-09
4.04255e-09
4.43964e-09
4.64473e-09
3.67464e-09
5.45797e-09
5.87248e-09
6.7349e-09
6.61206e-09
8.11977e-09
8.66329e-09
1.03397e-08
1.06137e-08
1.25037e-08
1.33222e-08
1.59874e-08
1.60916e-08
3.7316e-10
1.30184e-09
1.08562e-09
9.85655e-10
1.23311e-09
1.60925e-09
1.66902e-09
1.73244e-09
2.50805e-09
1.81422e-09
2.8802e-09
3.82577e-09
3.4834e-09
3.03028e-09
3.70199e-09
4.35206e-09
4.30946e-09
3.95427e-09
5.36672e-09
6.06202e-09
6.61491e-09
6.81884e-09
7.96819e-09
8.61713e-09
9.99905e-09
1.05959e-08
1.2061e-08
1.3034e-08
1.50041e-08
1.56328e-08
3.61986e-10
9.72585e-10
1.04857e-09
1.19306e-09
1.45352e-09
1.76403e-09
1.94764e-09
2.02905e-09
2.579e-09
2.19125e-09
3.26573e-09
3.5697e-09
3.67133e-09
3.08518e-09
3.90075e-09
4.26676e-09
4.53779e-09
4.40797e-09
5.62484e-09
6.18763e-09
6.80357e-09
6.84116e-09
8.06235e-09
8.66989e-09
9.95223e-09
1.05501e-08
1.20281e-08
1.2686e-08
1.46192e-08
1.50818e-08
7.95597e-11
6.96676e-10
8.4099e-10
1.27961e-09
1.56285e-09
1.84708e-09
1.9461e-09
2.14739e-09
2.70258e-09
2.3402e-09
2.9426e-09
3.81208e-09
3.34423e-09
3.32407e-09
3.81589e-09
4.46218e-09
4.52047e-09
4.63532e-09
5.64929e-09
6.59289e-09
6.63068e-09
6.973e-09
7.93582e-09
8.72127e-09
9.77265e-09
1.05142e-08
1.17108e-08
1.24766e-08
1.38776e-08
1.45551e-08
3.46486e-11
4.8661e-10
9.019e-10
1.50919e-09
1.61792e-09
1.94061e-09
2.09724e-09
2.30051e-09
2.73216e-09
2.5738e-09
3.13995e-09
3.52902e-09
3.57667e-09
3.69058e-09
4.07531e-09
4.52395e-09
4.76072e-09
5.00727e-09
5.91988e-09
6.54378e-09
6.85555e-09
7.16488e-09
8.06329e-09
8.7953e-09
9.77943e-09
1.04811e-08
1.16724e-08
1.2308e-08
1.35533e-08
1.42736e-08
4.50791e-13
2.38247e-10
5.41787e-10
9.98077e-10
1.67224e-09
1.8254e-09
1.88826e-09
2.19126e-09
2.64277e-09
2.42424e-09
2.69208e-09
3.5059e-09
3.36898e-09
3.61734e-09
4.11243e-09
4.6122e-09
4.62727e-09
4.93364e-09
5.86801e-09
6.7932e-09
6.66623e-09
7.14024e-09
7.9824e-09
8.77952e-09
9.59082e-09
1.03486e-08
1.13533e-08
1.21161e-08
1.30113e-08
1.3647e-08
6.29651e-11
8.69553e-10
1.07719e-09
1.57959e-09
1.5879e-09
1.8382e-09
1.94158e-09
2.23421e-09
2.50657e-09
2.73712e-09
2.92467e-09
3.30902e-09
3.41486e-09
3.84387e-09
4.14212e-09
4.59131e-09
4.7488e-09
5.14946e-09
5.94637e-09
6.60574e-09
6.84395e-09
7.44729e-09
8.06564e-09
8.77834e-09
9.51612e-09
1.02527e-08
1.12767e-08
1.2026e-08
1.29347e-08
1.36494e-08
3.6424e-12
3.02224e-12
2.51011e-10
5.4617e-10
1.42151e-09
1.29029e-09
1.08981e-09
1.45402e-09
1.804e-09
1.8664e-09
2.13088e-09
3.1236e-09
3.02768e-09
3.41926e-09
4.04624e-09
4.52178e-09
4.50865e-09
5.05331e-09
5.87339e-09
6.55662e-09
6.59736e-09
7.17322e-09
7.92895e-09
8.57654e-09
9.137e-09
9.79966e-09
1.0665e-08
1.15198e-08
1.22835e-08
1.28317e-08
2.07107e-09
2.63022e-09
1.60022e-09
1.54068e-09
1.93628e-09
2.27203e-09
3.1921e-09
3.53277e-09
3.08532e-09
3.13202e-09
1.88242e-09
1.27164e-09
5.30413e-10
3.66781e-10
1.35043e-10
1.11806e-10
5.03059e-11
7.94303e-12
2.03991e-14
2.34982e-13
3.79177e-12
2.34105e-12
1.63681e-13
2.95238e-12
4.3896e-12
1.3953e-11
3.38174e-11
1.29115e-10
2.67178e-10
6.38418e-10
4.99446e-09
5.58154e-09
1.06572e-09
1.16749e-10
3.79833e-11
5.89919e-12
5.4529e-13
7.33041e-14
4.03127e-13
4.17868e-14
1.0024e-12
1.77599e-12
7.82203e-13
9.41856e-13
1.54711e-12
1.37646e-12
2.66301e-12
5.43759e-12
6.43078e-12
3.20362e-12
3.01739e-12
7.23538e-12
1.0397e-11
1.00277e-11
9.58492e-12
8.0452e-12
7.33005e-12
7.38714e-12
7.65832e-12
7.32529e-12
3.46758e-11
4.62145e-12
2.66392e-13
1.5754e-14
5.80871e-14
3.0322e-14
3.17734e-15
7.52989e-17
1.70445e-17
6.7052e-16
3.71736e-15
1.32419e-15
2.15519e-16
1.32513e-15
1.0445e-14
1.36014e-14
5.01655e-15
2.49091e-15
3.87466e-15
2.40044e-14
8.7694e-14
1.07595e-13
3.68244e-14
7.57931e-15
6.94188e-15
3.88117e-14
1.55323e-13
2.9213e-13
2.63621e-13
1.28221e-13
1.96196e-09
3.28729e-10
9.72329e-10
1.15764e-10
2.3753e-11
1.40553e-10
1.57095e-11
7.58561e-11
3.52896e-10
1.46217e-09
1.11831e-08
8.03405e-09
8.99619e-09
2.78708e-08
3.88311e-09
2.85075e-08
1.0876e-09
4.71514e-09
1.27267e-10
8.55336e-08
3.44702e-08
1.54228e-08
1.14598e-08
6.65109e-08
3.17681e-08
5.70077e-08
6.36178e-08
7.13312e-08
3.01749e-07
7.30621e-08
5.32904e-08
4.28396e-08
2.28197e-08
4.0175e-08
4.36127e-08
8.9744e-09
3.94588e-08
4.76807e-08
3.6363e-08
5.93316e-09
3.43432e-08
3.29275e-08
3.42247e-08
3.59485e-08
3.79315e-08
3.20448e-08
2.49479e-08
4.15743e-08
4.53615e-08
2.45425e-08
3.74608e-08
2.90436e-08
2.67339e-08
2.77446e-08
3.70015e-08
3.69131e-08
2.86397e-08
4.28524e-08
3.97479e-08
2.43998e-08
2.71617e-08
2.53782e-08
2.7903e-08
2.71301e-08
3.07545e-08
3.30799e-08
2.7761e-08
3.41201e-08
3.85704e-08
3.0777e-08
2.96352e-08
2.37134e-08
2.5392e-08
2.53574e-08
2.91989e-08
3.17434e-08
2.74284e-08
3.10769e-08
3.36407e-08
2.85619e-08
2.40144e-08
2.14597e-08
2.40129e-08
2.43173e-08
2.58225e-08
2.84439e-08
2.68243e-08
2.72252e-08
3.02787e-08
2.73616e-08
2.33479e-08
2.01431e-08
2.23443e-08
2.30446e-08
2.41627e-08
2.56201e-08
2.53876e-08
2.62105e-08
2.64553e-08
2.36316e-08
2.0232e-08
1.8834e-08
2.09173e-08
2.16588e-08
2.22326e-08
2.39298e-08
2.39474e-08
2.3425e-08
2.38521e-08
2.25198e-08
1.89123e-08
1.77734e-08
1.96603e-08
2.04591e-08
2.08801e-08
2.19008e-08
2.22529e-08
2.22374e-08
2.15782e-08
1.97352e-08
1.70017e-08
1.68132e-08
1.83655e-08
1.91995e-08
1.96382e-08
2.0579e-08
2.04955e-08
2.02066e-08
1.98448e-08
1.85104e-08
1.62828e-08
1.60565e-08
1.74132e-08
1.80914e-08
1.84365e-08
1.90373e-08
1.91409e-08
1.88002e-08
1.81969e-08
1.68731e-08
1.48232e-08
1.51507e-08
1.62386e-08
1.69634e-08
1.72792e-08
1.77822e-08
1.76053e-08
1.72882e-08
1.68162e-08
1.5666e-08
1.47907e-08
1.46969e-08
1.55036e-08
1.59239e-08
1.62074e-08
1.65105e-08
1.64602e-08
1.61524e-08
1.57017e-08
1.46985e-08
1.34514e-08
1.36429e-08
1.43631e-08
1.4705e-08
1.50254e-08
1.51216e-08
1.52233e-08
1.47012e-08
1.45533e-08
1.31718e-08
1.02188e-09
6.82239e-10
1.47423e-09
1.50522e-09
2.53474e-09
2.51125e-09
3.42949e-09
2.90407e-09
3.2556e-09
2.29501e-09
7.80263e-12
5.66209e-12
1.01586e-12
2.86872e-13
3.25871e-13
3.71954e-12
8.60312e-12
1.52923e-11
1.93032e-11
1.84717e-11
6.70222e-14
2.03521e-15
1.46441e-15
6.74409e-15
2.31351e-14
5.32963e-14
6.05634e-14
9.06654e-14
7.21152e-14
4.42137e-14
7.56875e-08
1.853e-08
2.68513e-12
6.10007e-08
4.14232e-08
1.88727e-08
4.37842e-09
8.82338e-10
3.78386e-10
1.64855e-10
1.55409e-10
1.63405e-10
2.37203e-10
8.44961e-10
2.25393e-09
1.39703e-08
5.20841e-08
1.32074e-07
4.32931e-08
5.40504e-09
7.32334e-10
1.2869e-10
3.09162e-11
1.014e-11
4.14761e-12
1.91542e-12
7.82319e-13
1.58264e-13
2.59116e-15
1.32233e-14
1.08616e-13
2.35667e-13
2.59584e-13
1.98342e-13
1.08901e-13
4.91946e-14
1.80945e-14
4.5377e-15
1.64604e-15
1.83975e-15
7.24402e-08
4.49441e-07
2.23309e-10
3.40637e-08
1.04202e-07
1.64545e-07
7.77905e-08
1.49923e-10
7.20937e-07
4.09971e-07
5.66921e-09
2.3573e-10
8.34233e-09
2.76722e-08
3.70552e-08
7.39949e-08
9.35785e-08
1.04496e-07
9.55422e-08
7.56933e-08
5.35553e-08
3.47153e-08
2.07535e-08
1.15697e-08
6.26293e-09
3.26046e-09
1.48992e-09
5.18355e-10
1.24274e-10
1.72691e-11
5.97773e-13
5.85809e-13
3.19801e-12
4.72519e-12
4.37147e-12
2.67936e-12
1.46104e-12
6.14812e-13
2.62938e-13
7.20574e-14
2.50885e-08
1.01278e-07
1.8988e-07
7.36231e-08
8.99333e-08
8.43607e-08
2.31632e-07
6.60699e-07
9.41983e-07
4.25391e-07
5.60631e-08
1.6329e-09
1.07129e-11
4.00845e-10
2.0906e-09
1.16806e-08
3.8022e-08
6.91097e-08
8.83964e-08
8.30582e-08
6.53264e-08
5.01163e-08
4.071e-08
3.32478e-08
2.70996e-08
2.42997e-08
2.35832e-08
2.17329e-08
1.57241e-08
5.08379e-09
2.50976e-10
4.77962e-12
1.10426e-10
1.64801e-10
1.22989e-10
5.72811e-11
2.02282e-11
5.31653e-12
1.06478e-12
1.15164e-13
5.86338e-08
2.35927e-08
7.61015e-08
1.93108e-07
1.37828e-09
2.73678e-07
4.43227e-07
8.93707e-07
1.11904e-06
6.28818e-07
1.33976e-07
6.11638e-09
6.5161e-11
3.8074e-12
6.79647e-11
1.5815e-09
1.51554e-08
3.83507e-08
6.55096e-08
8.03853e-08
6.90498e-08
4.99369e-08
3.93989e-08
3.4198e-08
2.73257e-08
2.02202e-08
1.49115e-08
5.85225e-09
7.09317e-10
2.13861e-10
4.12192e-10
1.97813e-09
3.63975e-09
4.68306e-09
5.75004e-09
2.91239e-09
1.07317e-09
3.08601e-10
5.23101e-11
2.38015e-12
4.79049e-08
2.88062e-08
1.14134e-07
1.40049e-07
6.14402e-09
8.46038e-07
1.11755e-06
1.36958e-06
1.53786e-06
1.03942e-06
3.25075e-07
3.48479e-08
1.44122e-09
1.69912e-11
3.37064e-12
2.56276e-10
1.39714e-08
4.66053e-08
5.67345e-08
6.63026e-08
6.2183e-08
4.50962e-08
3.10002e-08
2.26007e-08
1.16362e-08
5.65403e-09
3.42183e-09
5.58293e-11
4.66214e-08
4.26153e-09
3.46491e-10
5.3026e-12
1.24889e-11
2.25093e-10
8.76286e-10
2.09889e-09
2.18733e-09
1.54424e-08
1.10749e-08
4.4516e-10
1.55285e-06
2.85752e-08
1.40796e-07
1.20809e-07
2.29054e-09
3.39526e-07
5.55276e-07
9.42517e-07
1.24368e-06
1.0494e-06
4.34667e-07
8.10325e-08
1.35998e-08
5.21689e-09
1.37802e-09
1.10803e-13
6.72003e-09
6.06096e-08
7.78598e-08
6.32918e-08
4.99464e-08
2.60731e-08
1.92922e-08
1.64812e-08
7.48688e-09
2.7729e-10
9.63202e-12
5.89232e-11
1.72108e-09
2.90877e-08
2.75082e-09
2.69161e-13
8.75776e-11
2.81248e-10
4.40052e-10
5.89655e-10
6.36253e-10
6.72343e-10
6.84181e-10
4.64821e-10
4.29161e-08
1.28099e-07
2.09414e-07
2.46799e-07
2.23508e-08
2.88681e-07
1.26481e-06
1.84865e-06
1.91345e-06
1.48079e-06
7.32128e-07
2.04181e-07
4.02813e-08
1.78249e-08
1.20666e-08
8.7329e-11
8.08828e-09
5.84158e-08
7.26769e-08
5.50832e-08
4.76626e-08
3.42125e-08
2.18944e-08
1.94074e-08
1.6153e-08
1.0489e-08
1.75266e-09
1.19974e-09
8.34461e-09
2.06694e-09
5.13883e-12
8.10157e-11
2.30158e-09
8.95365e-09
6.14248e-09
3.64394e-09
2.12513e-09
1.21454e-09
7.44238e-10
2.83559e-10
1.23142e-08
4.06211e-08
1.2341e-09
1.21072e-07
1.22575e-07
1.16841e-08
1.29485e-07
1.31395e-06
1.79404e-06
1.71048e-06
1.1002e-06
4.5852e-07
1.28626e-07
2.59228e-08
5.2552e-09
3.95521e-10
4.37875e-08
7.69248e-08
5.21491e-08
1.29637e-08
2.88983e-08
3.3319e-08
2.49864e-08
2.53118e-08
2.19002e-08
1.90973e-08
1.96146e-08
1.87064e-08
1.78201e-08
1.14212e-08
5.38071e-10
2.13288e-10
7.89231e-10
2.2702e-10
4.28321e-12
7.13534e-10
5.89371e-09
7.0833e-09
4.05546e-09
6.84792e-10
2.69148e-07
1.08883e-08
4.47174e-09
7.32152e-11
1.5455e-09
2.4008e-08
2.7388e-07
1.13382e-06
1.55606e-06
1.47022e-06
1.10471e-06
6.09218e-07
2.17508e-07
4.12555e-08
1.65497e-10
5.65809e-08
8.51817e-08
6.70499e-08
5.01509e-08
3.44887e-08
2.76585e-08
3.20593e-08
3.00424e-08
2.28599e-08
1.84894e-08
1.784e-08
1.79093e-08
1.64439e-08
1.23713e-08
8.40052e-09
6.55051e-09
5.45104e-09
2.10189e-09
4.38363e-11
2.09365e-11
2.90383e-11
2.08236e-11
1.02198e-10
1.35343e-09
2.91232e-09
4.25046e-08
3.82957e-08
3.68269e-08
9.16123e-09
5.22139e-10
7.92342e-08
6.53904e-07
1.37678e-06
1.56121e-06
1.36454e-06
1.04915e-06
7.12327e-07
5.39682e-08
2.32014e-08
7.11349e-08
6.97693e-08
5.5525e-08
6.41049e-08
5.35987e-08
4.07285e-08
2.79384e-08
2.6454e-08
2.7335e-08
1.6196e-08
1.79418e-08
1.6275e-08
1.43698e-08
1.56086e-08
1.56896e-08
5.71855e-09
8.36918e-11
5.1902e-11
2.99316e-10
3.56529e-10
5.99747e-10
4.92817e-10
8.60503e-09
5.34914e-10
2.48881e-09
2.00236e-09
4.56658e-08
3.1063e-08
3.80719e-08
1.98569e-09
3.14297e-09
2.21316e-09
4.9267e-07
9.72328e-07
9.85171e-07
6.14978e-07
1.7901e-09
3.09678e-08
6.40476e-08
8.05163e-08
5.07903e-08
6.42708e-08
5.49183e-08
4.25994e-08
3.26864e-08
3.24595e-08
3.51402e-08
3.19342e-08
2.70404e-08
8.84987e-10
2.41885e-08
3.81136e-10
7.75238e-09
6.44879e-09
1.21181e-09
5.87496e-11
5.89738e-08
9.32382e-09
1.16685e-08
5.71586e-09
9.36159e-11
1.23791e-10
1.04263e-10
4.21983e-11
9.23225e-11
3.73177e-10
4.66288e-08
3.90885e-08
2.96308e-08
4.23415e-08
5.54427e-08
5.45653e-08
4.27791e-08
1.40017e-08
1.47316e-08
4.37171e-08
5.73001e-08
6.12363e-08
6.126e-08
6.94901e-08
5.78797e-08
4.56373e-08
4.31629e-08
4.17107e-08
3.32142e-08
3.1768e-08
1.851e-08
8.06745e-09
2.24165e-08
2.37358e-08
1.88356e-08
1.66235e-08
9.75246e-09
3.35059e-09
9.5048e-09
3.21108e-08
1.34768e-07
9.1233e-08
2.6534e-09
2.18752e-09
8.31581e-09
4.47262e-09
2.22195e-10
5.53413e-09
3.51468e-10
1.20699e-09
3.04551e-08
2.73875e-08
3.00427e-08
3.34312e-08
4.22658e-08
5.22322e-08
5.83318e-08
6.02915e-08
6.26538e-08
6.36424e-08
5.90049e-08
5.51697e-08
5.16628e-08
5.40737e-08
5.16058e-08
4.16353e-08
3.62754e-08
4.26111e-08
3.3818e-08
2.64641e-08
2.91538e-08
2.59645e-08
2.30151e-08
1.96558e-08
1.11065e-08
1.01171e-08
1.36951e-08
1.32563e-08
1.35119e-08
1.33098e-08
1.0101e-08
7.73115e-09
8.10986e-09
4.13754e-09
2.92662e-11
1.93834e-09
7.22829e-11
2.02702e-11
3.52603e-10
1.11204e-09
2.922e-08
2.41121e-08
3.33303e-08
3.1721e-08
3.63963e-08
4.46556e-08
4.87635e-08
4.612e-08
4.97499e-08
5.28453e-08
4.85254e-08
4.95245e-08
4.65117e-08
4.34732e-08
4.27376e-08
4.25053e-08
3.23422e-08
3.13123e-08
3.11508e-08
2.84152e-08
2.528e-08
2.35498e-08
1.95449e-08
1.81471e-08
1.05111e-08
1.05377e-08
1.21877e-08
4.79359e-09
3.81329e-10
3.73014e-09
8.25321e-09
2.22673e-11
2.51716e-08
9.75249e-09
2.16603e-10
4.78397e-10
9.33346e-09
1.27602e-08
3.27576e-08
5.60116e-09
2.28197e-08
2.31609e-08
3.37895e-08
3.42416e-08
3.38586e-08
3.73903e-08
3.83885e-08
3.95878e-08
4.1594e-08
4.47627e-08
4.36593e-08
4.64672e-08
4.02465e-08
3.56219e-08
3.54534e-08
3.84255e-08
3.57362e-08
2.56436e-08
2.42274e-08
2.94116e-08
2.60294e-08
1.7032e-08
1.86742e-08
1.77964e-08
1.32589e-08
1.27133e-09
6.20947e-09
7.62497e-09
3.18903e-09
8.18729e-09
2.87791e-09
3.18587e-11
2.24033e-09
4.63027e-09
2.71423e-09
2.07496e-09
4.2507e-09
2.69761e-08
6.09709e-08
1.42131e-08
2.32124e-08
2.47274e-08
3.04058e-08
3.17995e-08
3.10088e-08
3.25551e-08
3.24609e-08
3.24211e-08
3.44704e-08
3.6682e-08
3.85725e-08
3.91165e-08
3.57812e-08
3.20129e-08
3.03236e-08
2.71125e-08
2.79231e-08
2.90582e-08
2.39468e-08
2.01286e-08
2.13227e-08
1.80815e-08
1.61655e-08
1.61183e-08
1.73966e-08
1.35079e-08
1.18393e-08
1.09393e-08
8.41172e-09
8.90079e-09
8.90005e-09
3.88824e-11
4.07434e-10
4.90254e-09
1.79687e-10
5.16523e-09
7.5614e-12
3.07067e-10
2.38902e-09
2.93083e-09
2.14739e-08
2.28908e-08
2.66519e-08
2.86927e-08
2.78214e-08
2.73185e-08
2.69826e-08
2.8337e-08
2.84472e-08
3.0402e-08
3.00734e-08
3.18166e-08
3.17105e-08
2.99214e-08
2.78109e-08
2.61843e-08
2.28431e-08
2.56072e-08
2.5636e-08
2.11618e-08
1.84083e-08
2.1002e-08
2.07349e-08
1.5989e-08
1.34199e-08
1.26506e-08
1.07536e-08
9.68384e-09
1.87633e-09
9.16986e-10
6.05827e-09
2.04545e-09
6.25675e-09
1.52861e-09
2.53286e-09
2.7699e-12
3.35237e-09
7.24286e-09
5.50365e-09
3.56768e-09
2.07454e-08
2.05683e-08
2.33691e-08
2.50305e-08
2.49347e-08
2.36029e-08
2.34407e-08
2.38109e-08
2.47931e-08
2.60886e-08
2.68128e-08
2.43369e-08
2.62508e-08
2.61486e-08
2.30234e-08
2.36333e-08
2.43934e-08
2.05178e-08
1.98561e-08
2.16568e-08
2.04365e-08
1.65927e-08
1.64076e-08
1.46102e-08
1.33864e-08
1.14072e-08
9.93695e-09
1.10173e-08
8.13186e-09
4.66598e-09
4.61295e-09
4.03987e-09
2.72363e-09
3.55873e-09
4.56001e-09
4.041e-09
2.65351e-09
1.77027e-09
1.50637e-09
1.48021e-09
1.8989e-08
1.96577e-08
2.06424e-08
2.13365e-08
2.16933e-08
2.08802e-08
2.00364e-08
2.05735e-08
2.16963e-08
2.14362e-08
2.22647e-08
2.333e-08
2.0687e-08
2.12027e-08
2.23336e-08
2.03693e-08
1.98783e-08
2.09002e-08
2.00161e-08
1.82092e-08
1.90949e-08
1.76878e-08
1.62064e-08
1.51431e-08
1.51352e-08
1.35798e-08
1.05388e-08
9.13126e-09
8.90967e-09
8.73283e-09
7.74008e-09
5.69215e-09
3.61646e-09
2.31541e-09
1.76469e-09
1.8198e-09
3.07358e-09
3.17699e-09
3.76271e-09
2.57671e-09
1.76747e-08
1.75634e-08
1.82524e-08
1.87843e-08
1.84288e-08
1.82683e-08
1.79328e-08
1.74155e-08
1.81623e-08
1.9102e-08
1.84742e-08
1.91277e-08
1.93366e-08
1.79235e-08
1.79754e-08
1.89593e-08
1.79284e-08
1.75885e-08
1.90085e-08
1.80848e-08
1.66394e-08
1.66217e-08
1.66583e-08
1.47979e-08
1.25483e-08
1.16491e-08
1.14651e-08
1.0599e-08
8.74718e-09
6.38382e-09
4.72994e-09
4.1111e-09
4.07524e-09
4.0987e-09
4.24646e-09
4.13557e-09
3.66957e-09
2.80205e-09
2.18588e-09
1.1929e-09
1.63014e-08
1.63548e-08
1.63327e-08
1.62875e-08
1.62601e-08
1.5619e-08
1.52704e-08
1.56444e-08
1.53882e-08
1.57075e-08
1.66033e-08
1.59973e-08
1.59977e-08
1.6822e-08
1.58762e-08
1.55193e-08
1.70444e-08
1.69805e-08
1.6257e-08
1.69287e-08
1.73607e-08
1.61746e-08
1.48761e-08
1.43968e-08
1.38306e-08
1.23184e-08
1.04283e-08
9.0442e-09
8.29627e-09
7.56009e-09
6.59857e-09
5.33345e-09
4.22077e-09
3.26968e-09
2.97238e-09
2.6941e-09
2.95978e-09
2.63079e-09
2.82177e-09
2.13756e-09
1.49495e-08
1.47261e-08
1.45337e-08
1.43325e-08
1.39455e-08
1.36299e-08
1.32387e-08
1.29732e-08
1.34633e-08
1.36629e-08
1.36034e-08
1.42586e-08
1.41747e-08
1.35805e-08
1.4206e-08
1.44478e-08
1.40055e-08
1.45707e-08
1.53115e-08
1.48309e-08
1.41284e-08
1.38284e-08
1.31405e-08
1.15861e-08
9.99834e-09
8.81163e-09
8.01984e-09
6.98214e-09
5.71063e-09
4.262e-09
3.22135e-09
2.6323e-09
2.58494e-09
2.72791e-09
2.93701e-09
2.86994e-09
2.68034e-09
2.09217e-09
1.77875e-09
1.00787e-09
1.40232e-08
1.37008e-08
1.32097e-08
1.27565e-08
1.23907e-08
1.19415e-08
1.16645e-08
1.16934e-08
1.17821e-08
1.22076e-08
1.26734e-08
1.26054e-08
1.25818e-08
1.22773e-08
1.11334e-08
1.00743e-08
9.16227e-09
7.47141e-09
5.68286e-09
4.49135e-09
3.41072e-09
2.13491e-09
1.2484e-09
8.10955e-10
6.47773e-10
4.47256e-10
2.64268e-10
1.40565e-10
1.08737e-10
1.18353e-10
2.04208e-10
2.75829e-10
3.75266e-10
3.67628e-10
3.88919e-10
3.1598e-10
3.10214e-10
2.50367e-10
2.63869e-10
2.39441e-10
1.26145e-08
1.22742e-08
1.17759e-08
1.12622e-08
1.07582e-08
1.03916e-08
1.01508e-08
1.00488e-08
1.00883e-08
1.00596e-08
9.60744e-09
8.49758e-09
6.64687e-09
4.28238e-09
2.00867e-09
5.42578e-10
4.20251e-11
5.18027e-13
6.38726e-11
2.65573e-10
4.66011e-10
5.46383e-10
4.99314e-10
4.09435e-10
3.17416e-10
2.20758e-10
1.03825e-10
3.35021e-11
7.77271e-12
1.72023e-12
2.03507e-13
1.88675e-13
2.23035e-12
9.10074e-12
2.16146e-11
3.21575e-11
3.74669e-11
2.95084e-11
2.34733e-11
9.35476e-12
2.10503e-09
1.94541e-09
1.85826e-09
1.87607e-09
1.92974e-09
1.98779e-09
2.05645e-09
2.07768e-09
2.02307e-09
1.87611e-09
1.53343e-09
1.06956e-09
6.04392e-10
2.2986e-10
3.66767e-11
4.50609e-13
1.52765e-11
1.09188e-10
2.63732e-10
3.39157e-10
3.07431e-10
2.57603e-10
2.06959e-10
1.41597e-10
7.57866e-11
3.58589e-11
1.51621e-11
6.21365e-12
1.7234e-12
2.52338e-13
6.17579e-14
5.63505e-13
1.98032e-12
2.62283e-12
3.14669e-12
2.32342e-12
2.06216e-12
1.31399e-12
1.13539e-12
6.57111e-13
1.79676e-11
1.66106e-11
1.88086e-11
2.48407e-11
3.25056e-11
4.00745e-11
4.9306e-11
5.79597e-11
6.35256e-11
6.65072e-11
6.05243e-11
4.41162e-11
2.58432e-11
1.08209e-11
1.63901e-12
2.04815e-13
3.81776e-12
1.55263e-11
3.31493e-11
4.68115e-11
4.52957e-11
3.4007e-11
2.2524e-11
1.30225e-11
5.76086e-12
1.91919e-12
3.67754e-13
1.58046e-14
4.13122e-15
6.09075e-14
2.09901e-13
3.54717e-13
5.39661e-13
5.94446e-13
6.22882e-13
5.00151e-13
4.08012e-13
2.37743e-13
1.54894e-13
6.08041e-14
3.47056e-14
1.65332e-14
3.04182e-14
6.73252e-14
1.29702e-13
2.14359e-13
3.21533e-13
4.6419e-13
6.20487e-13
7.49203e-13
7.83191e-13
6.86585e-13
4.61222e-13
1.43325e-13
1.45112e-14
2.04257e-13
1.19827e-12
2.66666e-12
3.21261e-12
2.19811e-12
8.06169e-13
1.74634e-13
1.47649e-14
2.03861e-15
3.28506e-14
8.06824e-14
1.17361e-13
1.19306e-13
1.0614e-13
7.89516e-14
5.4036e-14
3.28138e-14
1.80672e-14
8.10785e-15
3.50692e-15
1.09005e-15
5.88567e-16
9.75321e-17
4.82316e-16
1.42966e-15
)
;

boundaryField
{
    inlet
    {
        type            calculated;
        value           nonuniform List<scalar> 
20
(
1.7379e-34
3.19484e-32
1.87369e-32
1.20881e-32
9.37842e-33
6.34005e-33
6.29755e-33
3.81465e-33
3.49657e-33
1.40039e-33
9.14117e-34
6.27306e-34
1.72592e-34
8.41965e-35
3.34156e-35
2.57152e-34
9.27584e-35
6.17429e-33
6.11134e-33
1.46678e-34
)
;
    }
    outlet
    {
        type            calculated;
        value           nonuniform List<scalar> 
27
(
2.04681e-32
5.46077e-33
7.6878e-33
1.28699e-33
2.08824e-32
7.85938e-34
4.76645e-33
5.1501e-33
7.06899e-33
6.15203e-33
6.81443e-34
1.28019e-32
5.83614e-33
1.14208e-32
6.61786e-33
4.1823e-33
1.03279e-35
1.80972e-37
6.14266e-36
7.95342e-37
1.13821e-36
2.45906e-36
4.0653e-37
8.60818e-36
3.8262e-35
1.92097e-33
1.04598e-32
)
;
    }
    lowerWall
    {
        type            fixedValue;
        value           uniform 0;
    }
    upperWall
    {
        type            fixedValue;
        value           uniform 0;
    }
    defaultFaces
    {
        type            empty;
    }
}


// ************************************************************************* //
