/*--------------------------------*- C++ -*----------------------------------*\
| =========                 |                                                 |
| \\      /  F ield         | OpenFOAM: The Open Source CFD Toolbox           |
|  \\    /   O peration     | Version:  2112                                  |
|   \\  /    A nd           | Website:  www.openfoam.com                      |
|    \\/     M anipulation  |                                                 |
\*---------------------------------------------------------------------------*/
FoamFile
{
    version     2.0;
    format      ascii;
    arch        "LSB;label=32;scalar=64";
    class       volScalarField;
    location    "0.37";
    object      p;
}
// * * * * * * * * * * * * * * * * * * * * * * * * * * * * * * * * * * * * * //

dimensions      [0 2 -2 0 0 0 0];

internalField   nonuniform List<scalar> 
1880
(
0.00318151
0.00304969
0.00295728
0.00290793
0.0028792
0.00285881
0.00283915
0.00282232
0.00280535
0.00279331
0.00278436
0.00277728
0.00277497
0.002775
0.00278003
0.00278691
0.00280417
0.00282003
0.00284906
0.00288214
0.00291945
0.00297997
0.00303296
0.00310575
0.00319251
0.00327009
0.00337333
0.00347727
0.00358235
0.00362135
0.00300124
0.00297224
0.00293137
0.00289353
0.00286545
0.00284297
0.00282588
0.00281102
0.00279626
0.00278462
0.00277514
0.00276754
0.00276267
0.00276485
0.00276307
0.00277498
0.00278262
0.00280492
0.00282311
0.00285622
0.00288786
0.00294281
0.00299091
0.00305608
0.00313079
0.0031996
0.0032933
0.0034004
0.00349145
0.00362577
0.00296847
0.00294919
0.00291966
0.00288712
0.00285967
0.00283624
0.0028182
0.00280362
0.00278858
0.00277696
0.00276733
0.00275745
0.00275132
0.00274999
0.00274923
0.00275427
0.00276004
0.00277641
0.00278978
0.00281616
0.0028398
0.00288218
0.00291794
0.00296341
0.00302599
0.00307199
0.00314385
0.00321105
0.00325994
0.0033062
0.00291117
0.00289947
0.00288406
0.00286237
0.00284146
0.00282062
0.00280306
0.00278949
0.00277352
0.0027634
0.00275152
0.00274288
0.00273293
0.00273058
0.00272672
0.00272639
0.0027298
0.00273746
0.00274942
0.00276056
0.00278149
0.00280607
0.00283171
0.00286312
0.00289816
0.0029241
0.00296821
0.00299204
0.0030045
0.00301877
0.00288311
0.00287362
0.00286301
0.00284707
0.00282955
0.00281027
0.00279268
0.00277862
0.0027621
0.00275047
0.00273799
0.00272753
0.00271522
0.00271008
0.00270308
0.00269856
0.00269642
0.00269927
0.00270376
0.00270729
0.00271777
0.00272956
0.0027433
0.00275624
0.00276921
0.00277922
0.00278695
0.0027836
0.00276449
0.00273405
0.00285572
0.00284692
0.00283857
0.00282661
0.00281193
0.00279499
0.00277815
0.0027642
0.00274721
0.00273404
0.0027214
0.00270794
0.00269501
0.00268526
0.00267714
0.00266651
0.00266007
0.00265681
0.00265489
0.0026496
0.0026495
0.0026503
0.00265019
0.0026466
0.00264296
0.00263008
0.00261477
0.00258535
0.00253621
0.00247307
0.00283496
0.00282687
0.0028199
0.00281037
0.00279744
0.0027821
0.00276557
0.00275147
0.00273351
0.00271899
0.00270483
0.00268932
0.00267395
0.00266101
0.00264979
0.00263438
0.00262278
0.00261373
0.00260439
0.00259144
0.00258083
0.00257108
0.00255823
0.00254075
0.00251878
0.00248909
0.00245184
0.00239939
0.0023277
0.00224179
0.00281763
0.00281049
0.00280392
0.0027955
0.00278342
0.00276871
0.00275253
0.00273754
0.00271929
0.00270236
0.00268761
0.00266907
0.00265173
0.00263559
0.00262057
0.00260133
0.00258412
0.0025691
0.00255324
0.00253217
0.00251274
0.00249221
0.00246801
0.0024371
0.00240068
0.00235517
0.00229997
0.00222941
0.00214084
0.00203406
0.00280393
0.00279753
0.00279098
0.00278309
0.00277114
0.00275675
0.00274028
0.00272463
0.00270538
0.00268661
0.00267046
0.00264924
0.00262957
0.00261014
0.00259152
0.00256832
0.00254547
0.00252528
0.00250253
0.00247424
0.00244626
0.00241594
0.00238143
0.00233911
0.00228928
0.00223053
0.0021607
0.00207514
0.00197186
0.0018512
0.00279353
0.00278783
0.00278112
0.00277306
0.00276094
0.00274601
0.00272925
0.00271224
0.00269208
0.00267129
0.00265343
0.00262997
0.00260727
0.0025852
0.00256252
0.00253544
0.00250772
0.00248183
0.00245333
0.00241784
0.00238199
0.00234333
0.00229932
0.00224671
0.00218581
0.00211547
0.00203381
0.00193603
0.00182221
0.0016906
0.00278654
0.0027814
0.00277426
0.00276567
0.00275281
0.00273703
0.00271944
0.002701
0.00267951
0.00265677
0.00263703
0.0026113
0.00258564
0.00256087
0.00253431
0.00250359
0.00247094
0.00244001
0.00240617
0.0023639
0.00232104
0.00227489
0.00222229
0.00216108
0.00209047
0.00201045
0.00191952
0.00181234
0.00168962
0.00155043
0.00278314
0.00277826
0.00277058
0.00276101
0.00274718
0.00273001
0.00271132
0.00269123
0.00266813
0.00264368
0.00262169
0.00259403
0.00256518
0.0025378
0.00250774
0.00247304
0.00243625
0.0024005
0.00236166
0.0023136
0.00226394
0.00221135
0.00215144
0.00208239
0.00200386
0.0019159
0.00181754
0.00170306
0.00157369
0.00142916
0.00278364
0.00277869
0.00277003
0.00275893
0.0027434
0.00272443
0.0027041
0.00268214
0.00265737
0.00263124
0.00260716
0.00257754
0.00254577
0.00251582
0.00248247
0.00244399
0.00240344
0.00236335
0.00232001
0.00226668
0.00221094
0.0021529
0.00208663
0.00201094
0.00192593
0.0018314
0.00172704
0.00160726
0.0014727
0.0013241
0.00278878
0.00278364
0.00277392
0.00276107
0.00274363
0.00272253
0.00270032
0.00267631
0.00264958
0.00262176
0.00259523
0.00256347
0.00252893
0.00249617
0.00245979
0.00241758
0.00237366
0.00232975
0.00228187
0.00222399
0.00216292
0.00210004
0.00202857
0.00194708
0.00185671
0.00175704
0.00164789
0.00152414
0.00138574
0.00123473
0.00279847
0.00279204
0.00278003
0.00276404
0.00274346
0.00271952
0.00269494
0.00266896
0.00264045
0.00261121
0.00258267
0.00254908
0.0025123
0.00247712
0.00243811
0.0023928
0.00234612
0.00229889
0.00224685
0.00218499
0.00211953
0.00205256
0.00197671
0.00189027
0.00179556
0.00169192
0.0015789
0.00145228
0.00131138
0.00115819
0.00281733
0.00280964
0.00279467
0.00277455
0.00274998
0.00272272
0.0026956
0.00266759
0.0026374
0.00260663
0.00257583
0.00254001
0.00250085
0.00246285
0.00242087
0.00237253
0.00232306
0.0022726
0.00221634
0.00215098
0.00208209
0.00201137
0.00193168
0.00184108
0.00174277
0.00163603
0.00151984
0.00139098
0.00124866
0.00109532
0.00283786
0.00282595
0.00280523
0.00277939
0.00275067
0.0027207
0.0026918
0.00266252
0.002631
0.00259873
0.0025657
0.00252781
0.00248686
0.00244661
0.00240233
0.00235196
0.00230075
0.0022478
0.00218808
0.00212006
0.00204868
0.00197455
0.00189154
0.00179801
0.00169721
0.00158835
0.00146979
0.00133917
0.00119557
0.00104044
0.00289105
0.00286891
0.00283424
0.00279691
0.00276132
0.00272767
0.00269688
0.00266599
0.00263267
0.0025983
0.00256269
0.00252274
0.00248034
0.002438
0.00239173
0.00233994
0.00228657
0.00223039
0.00216718
0.00209707
0.00202345
0.0019456
0.00185917
0.00176313
0.00165999
0.00154906
0.00142863
0.00129724
0.00115459
0.00100142
0.00291987
0.00288557
0.00284032
0.00279781
0.00276044
0.00272676
0.00269543
0.00266329
0.00262864
0.00259281
0.00255504
0.00251382
0.00247098
0.00242663
0.0023778
0.00232462
0.00226983
0.00221119
0.00214513
0.00207334
0.00199763
0.00191672
0.00182909
0.00173356
0.00162957
0.00151652
0.00139322
0.00125955
0.00111591
0.00096215
0.00309943
0.00295994
0.00286252
0.00280845
0.00277264
0.002739
0.00270475
0.00266899
0.00263177
0.00259429
0.00255527
0.00251381
0.00247063
0.00242493
0.00237527
0.00232185
0.00226531
0.00220446
0.00213784
0.00206628
0.00198945
0.00190644
0.0018167
0.00171967
0.00161453
0.001501
0.00137806
0.00124585
0.00110432
0.000953515
0.00378576
0.00368863
0.00335422
0.00300899
0.00230346
0.00176138
0.000922478
8.44221e-05
-0.00115625
-0.00259635
0.00371996
0.00345689
0.00299352
0.0025836
0.00184238
0.0012536
0.000466158
-0.000496497
-0.00154758
-0.00289669
0.00334665
0.00307504
0.00261557
0.00228749
0.00160496
0.00107746
0.000318354
-0.000488439
-0.00150178
-0.0024938
0.00302104
0.00273537
0.00232676
0.00190811
0.00133407
0.000715242
7.34534e-05
-0.000758967
-0.00164235
-0.00251603
0.00268105
0.00242181
0.00199543
0.00162056
0.00109746
0.00054836
-6.60111e-05
-0.000786845
-0.00158298
-0.00232672
0.00239925
0.00212383
0.00176574
0.0013581
0.000907148
0.000343576
-0.000220803
-0.000885465
-0.00160382
-0.00226703
0.00213806
0.00188663
0.00152904
0.00114412
0.000721085
0.000212469
-0.000317313
-0.000908384
-0.00155127
-0.0021446
0.00191661
0.00166333
0.0013401
0.000962687
0.000571001
9.74613e-05
-0.000401025
-0.000944202
-0.0015214
-0.00206146
0.00171721
0.00147941
0.00116818
0.000812108
0.000439664
8.62391e-06
-0.000457952
-0.000957226
-0.00146821
-0.00195729
0.00154737
0.00131689
0.00102422
0.00068677
0.000334156
-6.36745e-05
-0.000497627
-0.000960105
-0.00142114
-0.00186825
0.0013983
0.00117776
0.000899275
0.000581342
0.000246713
-0.00012292
-0.000525757
-0.000951373
-0.00136974
-0.00177685
0.00127217
0.00105993
0.000796092
0.000495923
0.000178742
-0.000167164
-0.000541265
-0.000933933
-0.00131884
-0.00169436
0.00116265
0.000957116
0.000706446
0.000423017
0.000122092
-0.000203057
-0.000551404
-0.000913815
-0.00126943
-0.00161655
0.00107229
0.000873853
0.000635807
0.000367304
8.13411e-05
-0.00022562
-0.000551437
-0.000888166
-0.00122023
-0.00154515
0.000992945
0.000798795
0.000571782
0.000317425
4.56911e-05
-0.000244575
-0.000550122
-0.000864375
-0.00117566
-0.00148095
0.000931711
0.000743664
0.000526736
0.000284444
2.49842e-05
-0.000251163
-0.000540226
-0.000836812
-0.00113202
-0.00142241
0.000874505
0.000689243
0.000481262
0.000251197
4.62079e-06
-0.000257385
-0.000531182
-0.000812394
-0.00109366
-0.00137136
0.000837957
0.00065747
0.000456727
0.000235611
-1.52397e-06
-0.00025328
-0.000516098
-0.000786582
-0.00105823
-0.0013269
0.000798238
0.000621217
0.000428867
0.000219082
-6.2171e-06
-0.000246678
-0.000498821
-0.000759993
-0.00102449
-0.00128692
0.000792408
0.000616408
0.000425322
0.000218507
-3.31026e-06
-0.000239924
-0.000488086
-0.000745923
-0.00100766
-0.00127032
-0.00555002
-0.00586498
-0.00594307
-0.00599551
-0.00640712
-0.00804271
-0.0104883
-0.0126383
-0.0137287
-0.0135985
-0.0123352
-0.0102443
-0.00781988
-0.00523443
-0.00283042
-0.000688273
0.00103037
0.00213809
0.00270772
0.00284423
0.00273241
0.0024998
0.00222883
0.00196041
0.00171145
0.00148825
0.00128767
0.00110487
0.000935343
0.000777312
0.000631988
0.000502679
0.000391919
0.000300482
0.000226454
0.000167043
0.000118744
7.84085e-05
4.4049e-05
1.33641e-05
-0.00569997
-0.00600649
-0.00606619
-0.00593475
-0.00688369
-0.00892002
-0.0114169
-0.0134997
-0.0145045
-0.0142524
-0.0128731
-0.010665
-0.00817896
-0.00557638
-0.00314951
-0.000993366
0.00078199
0.00194531
0.00256507
0.0027347
0.00264291
0.00242608
0.00216924
0.00191289
0.00167341
0.00145682
0.00126143
0.0010816
0.00091507
0.000760197
0.000618126
0.000492296
0.000385163
0.000296772
0.00022517
0.000167195
0.000119837
7.98255e-05
4.52722e-05
1.42228e-05
-0.00563864
-0.00592715
-0.0061323
-0.00655862
-0.00784929
-0.0101609
-0.0126395
-0.0147111
-0.0156835
-0.0153034
-0.0137354
-0.0113472
-0.00875335
-0.00615912
-0.00374004
-0.00156237
0.000294024
0.0015463
0.00224192
0.00247667
0.00242896
0.00224677
0.00202105
0.00179184
0.00157381
0.00137375
0.00119282
0.00102813
0.000874754
0.000732862
0.000604094
0.000489598
0.000390043
0.000305678
0.000235496
0.000177214
0.000128426
8.64811e-05
4.96075e-05
1.61011e-05
-0.00520475
-0.00531094
-0.00528609
-0.00621171
-0.00851377
-0.0113545
-0.0138859
-0.0159452
-0.0168787
-0.0163459
-0.0145581
-0.0120043
-0.00931881
-0.00674198
-0.00434873
-0.00218457
-0.000288434
0.00104059
0.00180015
0.00210721
0.00212638
0.00199977
0.00182131
0.00163286
0.00144784
0.00127262
0.00111069
0.000961617
0.000823008
0.000694369
0.000577504
0.000473109
0.000381839
0.000303137
0.000236027
0.000179097
0.000130503
8.83532e-05
5.07678e-05
1.65173e-05
-0.00535997
-0.0057234
-0.00544192
-0.00646148
-0.00888337
-0.0119318
-0.0145351
-0.01668
-0.0176083
-0.0170433
-0.0151539
-0.0125155
-0.00978307
-0.00722859
-0.00487966
-0.00273321
-0.000860718
0.000508713
0.00130791
0.00166869
0.00175889
0.00170225
0.00158226
0.00144116
0.00129487
0.0011506
0.0010131
0.000883202
0.000760682
0.000646677
0.00054268
0.000450268
0.000368352
0.000296804
0.000234587
0.000180705
0.000133261
9.10524e-05
5.28738e-05
1.74554e-05
-0.00468232
-0.0055598
-0.00465928
-0.00596484
-0.00875719
-0.0120273
-0.014821
-0.0169655
-0.0178356
-0.0172189
-0.0153001
-0.0126983
-0.0100251
-0.00754406
-0.00528044
-0.00317757
-0.00134259
2.40962e-05
0.000836714
0.00122868
0.00137834
0.00139192
0.00133562
0.00124549
0.00113816
0.00102459
0.000912155
0.000803851
0.000699546
0.000599826
0.000507312
0.000424179
0.000350841
0.000285682
0.000227788
0.000176346
0.000130266
8.91951e-05
5.16704e-05
1.69451e-05
-0.00464154
-0.00555077
-0.00463568
-0.00572296
-0.00827407
-0.0115075
-0.0142262
-0.0162487
-0.0170951
-0.016561
-0.0148174
-0.0124517
-0.00997338
-0.00762448
-0.00547042
-0.00346427
-0.00172541
-0.000415699
0.000393346
0.000819977
0.00102528
0.00109936
0.00109699
0.00105211
0.000982489
0.000899542
0.000811273
0.000722298
0.000634065
0.000547597
0.000465427
0.000390824
0.0003252
0.000267615
0.00021646
0.000169884
0.000127444
8.81708e-05
5.1663e-05
1.72553e-05
-0.00476931
-0.00380521
-0.00418451
-0.00523761
-0.0077115
-0.0105289
-0.0129981
-0.0148603
-0.0156854
-0.0153742
-0.0139478
-0.0119149
-0.00966333
-0.00746722
-0.00544209
-0.00356639
-0.00197258
-0.000791638
-4.29728e-05
0.00041029
0.000675208
0.000816514
0.000869892
0.000864046
0.000825722
0.000771109
0.000707377
0.000637932
0.000565075
0.000491448
0.000420806
0.000355958
0.000297714
0.000244902
0.000196971
0.000153789
0.000115374
8.02676e-05
4.71241e-05
1.57754e-05
-0.0038612
-0.00459712
-0.00511482
-0.00554384
-0.00731505
-0.00985313
-0.0120573
-0.0136555
-0.0143548
-0.0140273
-0.0128241
-0.0110893
-0.0090852
-0.00705735
-0.0051916
-0.00352381
-0.00211676
-0.00106057
-0.000375981
6.45688e-05
0.000353292
0.000531672
0.000629408
0.000668122
0.000663568
0.000634811
0.000593929
0.000544995
0.000488724
0.000428182
0.00036888
0.000314113
0.000264317
0.000219478
0.000179558
0.000143221
0.000109054
7.64317e-05
4.50875e-05
1.53031e-05
-0.00343904
-0.00410933
-0.00466311
-0.00548057
-0.00701681
-0.00907004
-0.0108792
-0.012155
-0.0126861
-0.0123967
-0.0113875
-0.00989287
-0.00816256
-0.00643619
-0.00485084
-0.003442
-0.00224695
-0.00131235
-0.00064942
-0.000196257
0.000106606
0.000297431
0.000408207
0.000465033
0.000487388
0.000486767
0.000469401
0.000440303
0.000402368
0.000358031
0.000311959
0.000268101
0.000227731
0.000189295
0.000152584
0.000118816
8.89292e-05
6.22339e-05
3.72208e-05
1.22806e-05
-0.00322108
-0.00387756
-0.00465199
-0.00547764
-0.00661883
-0.00810626
-0.00945013
-0.0104096
-0.0108287
-0.010612
-0.00981058
-0.00862826
-0.007244
-0.00583439
-0.00452488
-0.00335831
-0.00234351
-0.00151645
-0.00090464
-0.000464563
-0.000150178
6.66621e-05
0.000204845
0.000284009
0.000325418
0.000344358
0.00034626
0.000334589
0.00031288
0.000283747
0.000252381
0.000222758
0.000192766
0.000161693
0.00013248
0.00010635
8.17474e-05
5.7535e-05
3.36606e-05
1.10494e-05
-0.00299776
-0.00363955
-0.00436071
-0.00512895
-0.00602948
-0.0071073
-0.00812082
-0.00886677
-0.00919659
-0.00904677
-0.00846229
-0.0075629
-0.0064674
-0.00533267
-0.00425897
-0.00327736
-0.00240544
-0.00166646
-0.0010998
-0.000684427
-0.000377803
-0.000152605
7.11978e-06
0.000112719
0.000178021
0.000216445
0.000234886
0.00023778
0.000228766
0.000211627
0.000191438
0.00017076
0.000149193
0.000126733
0.0001034
8.06166e-05
6.01002e-05
4.19557e-05
2.45525e-05
8.26398e-06
-0.00283678
-0.00341745
-0.00405927
-0.00476105
-0.0055157
-0.00633669
-0.00709882
-0.00765834
-0.00790995
-0.00780052
-0.00736925
-0.00668685
-0.00582964
-0.00490559
-0.00400976
-0.00317409
-0.00242254
-0.00177913
-0.00126428
-0.000866507
-0.00055989
-0.00032672
-0.000156321
-3.60227e-05
4.65834e-05
9.96892e-05
0.000130579
0.000147166
0.00015421
0.000152538
0.000143004
0.000129995
0.000116141
9.99406e-05
8.26311e-05
6.70016e-05
5.3928e-05
4.08298e-05
2.59137e-05
9.23385e-06
-0.00267303
-0.0032
-0.00377113
-0.00439536
-0.0050417
-0.00568652
-0.00626892
-0.00670223
-0.00689206
-0.00681517
-0.00648808
-0.00595711
-0.00528077
-0.00453119
-0.00378114
-0.00307942
-0.00243946
-0.00186987
-0.00139214
-0.00101472
-0.000720587
-0.000491311
-0.000316209
-0.000188822
-9.72012e-05
-3.03454e-05
1.72198e-05
4.8482e-05
6.78955e-05
7.8599e-05
8.20078e-05
7.94597e-05
7.28306e-05
6.4672e-05
5.58884e-05
4.54833e-05
3.40326e-05
2.26693e-05
1.23444e-05
3.45048e-06
-0.00252503
-0.00300298
-0.00350852
-0.00405391
-0.00461256
-0.00514504
-0.00560789
-0.00594152
-0.00609432
-0.00603799
-0.0057808
-0.00536062
-0.00481848
-0.00421165
-0.00359006
-0.00298759
-0.00242882
-0.00192789
-0.00149715
-0.00114643
-0.000866299
-0.000641414
-0.000461167
-0.000320471
-0.000214959
-0.000135944
-7.64111e-05
-3.29708e-05
-2.79816e-06
1.75016e-05
3.0051e-05
3.67848e-05
4.02156e-05
4.08383e-05
3.70244e-05
2.9801e-05
2.22093e-05
1.52753e-05
8.68913e-06
2.74419e-06
-0.00238515
-0.00281674
-0.0032673
-0.00374724
-0.00423195
-0.00467881
-0.00505276
-0.00531908
-0.00544158
-0.00540271
-0.00520258
-0.00486565
-0.00442873
-0.00393204
-0.00341212
-0.00289812
-0.00241353
-0.00197254
-0.00158389
-0.00125688
-0.000987823
-0.000766429
-0.000585595
-0.000440276
-0.000325517
-0.000236086
-0.000167055
-0.000113875
-7.28674e-05
-4.20906e-05
-2.11085e-05
-7.89249e-06
8.61758e-07
6.56179e-06
9.3947e-06
1.00546e-05
1.02093e-05
9.93718e-06
7.93574e-06
3.25223e-06
-0.00225675
-0.00264738
-0.00305255
-0.00347562
-0.00389785
-0.00428056
-0.00459246
-0.00481201
-0.00491457
-0.0048865
-0.00472972
-0.00445902
-0.00410153
-0.00368991
-0.00325415
-0.00281731
-0.002397
-0.00200676
-0.00165552
-0.00135251
-0.00109846
-0.000884475
-0.000704206
-0.000555613
-0.000434664
-0.000336162
-0.00025673
-0.000194074
-0.000144658
-0.000104614
-7.25575e-05
-4.84493e-05
-2.98773e-05
-1.72032e-05
-9.41934e-06
-4.55536e-06
-2.33179e-06
-1.51256e-06
-1.24053e-06
-9.84881e-07
-0.00213756
-0.00249409
-0.00286044
-0.00323634
-0.00360654
-0.00393815
-0.00420397
-0.00438719
-0.00447478
-0.00445798
-0.00433552
-0.0041171
-0.00382385
-0.0034822
-0.00311515
-0.00274106
-0.00237618
-0.00203209
-0.00171617
-0.0014355
-0.00119361
-0.000986153
-0.000807209
-0.000654573
-0.000527003
-0.00042123
-0.000333111
-0.000259766
-0.000199556
-0.000151789
-0.000115033
-8.59261e-05
-6.32769e-05
-4.47372e-05
-3.01149e-05
-1.88095e-05
-1.04292e-05
-4.66452e-06
-1.06957e-06
1.13371e-07
-0.00202964
-0.00235704
-0.00268979
-0.00302704
-0.00335395
-0.00364389
-0.00387485
-0.00403429
-0.00411197
-0.00410155
-0.00400504
-0.00382985
-0.00358884
-0.00330349
-0.0029941
-0.00267451
-0.00235714
-0.00205309
-0.00176907
-0.00151087
-0.0012823
-0.00108149
-0.00090535
-0.000751993
-0.000619502
-0.000506196
-0.000410676
-0.000330982
-0.00026432
-0.000207769
-0.000160043
-0.000121593
-9.10933e-05
-6.70742e-05
-4.85223e-05
-3.4513e-05
-2.39584e-05
-1.58546e-05
-9.18539e-06
-3.38564e-06
-0.00193121
-0.0022347
-0.00253966
-0.00284438
-0.00313557
-0.00339238
-0.00359604
-0.00373631
-0.00380705
-0.00380381
-0.00372738
-0.00358476
-0.00338738
-0.00315033
-0.00288905
-0.00261572
-0.00234046
-0.00207243
-0.00181764
-0.00158017
-0.00136386
-0.00116922
-0.000994494
-0.000838706
-0.000701212
-0.000581004
-0.000476778
-0.000387015
-0.000310581
-0.000246837
-0.000194611
-0.00015169
-0.000116091
-8.66789e-05
-6.27871e-05
-4.38165e-05
-2.89854e-05
-1.76231e-05
-8.92549e-06
-2.66821e-06
-0.00184277
-0.0021268
-0.00240813
-0.00268576
-0.0029479
-0.00317724
-0.00335948
-0.0034856
-0.00355078
-0.00355289
-0.00349327
-0.00337739
-0.00321512
-0.00301823
-0.00279813
-0.00256552
-0.0023289
-0.00209374
-0.0018648
-0.00164668
-0.00144226
-0.00125293
-0.00107952
-0.000922092
-0.000779804
-0.000652611
-0.00054144
-0.000445863
-0.000363616
-0.000292392
-0.000231438
-0.000180697
-0.000138982
-0.000105074
-7.78369e-05
-5.63345e-05
-3.93754e-05
-2.58269e-05
-1.45376e-05
-4.94881e-06
-0.00176392
-0.00203218
-0.00229439
-0.00254966
-0.00278783
-0.00299486
-0.00315906
-0.00327354
-0.00333481
-0.00334088
-0.00329402
-0.00320039
-0.00306722
-0.0029039
-0.00272073
-0.00252512
-0.00232201
-0.00211657
-0.00191285
-0.00171347
-0.00152018
-0.00133497
-0.00116079
-0.00100004
-0.000852892
-0.000719064
-0.000599314
-0.000493676
-0.000401715
-0.000323182
-0.000257233
-0.00020201
-0.000156126
-0.000118207
-8.7276e-05
-6.24399e-05
-4.25791e-05
-2.69077e-05
-1.44396e-05
-4.52267e-06
-0.00169438
-0.00195029
-0.00219694
-0.00243367
-0.00265227
-0.00284115
-0.00299069
-0.00309522
-0.00315218
-0.00316139
-0.00312492
-0.00304828
-0.0029395
-0.00280648
-0.00265569
-0.00249234
-0.00232102
-0.00214506
-0.0019654
-0.00178262
-0.00159869
-0.00141728
-0.0012423
-0.00107672
-0.000921767
-0.000779338
-0.000651713
-0.000539516
-0.000441404
-0.000355902
-0.00028264
-0.000221266
-0.000170555
-0.000129056
-9.55607e-05
-6.88482e-05
-4.76742e-05
-3.08664e-05
-1.71778e-05
-5.72264e-06
-0.00163424
-0.00188102
-0.00211583
-0.00233733
-0.00253882
-0.00271177
-0.00284877
-0.00294476
-0.00299818
-0.0030086
-0.00297913
-0.00291707
-0.00282904
-0.00272132
-0.00260032
-0.00246925
-0.00232828
-0.00217849
-0.00202076
-0.00185449
-0.00168012
-0.00150115
-0.00132275
-0.00115027
-0.000987024
-0.000835825
-0.000698812
-0.000577192
-0.000470325
-0.000377913
-0.000299301
-0.000233491
-0.000179086
-0.000134607
-9.87333e-05
-7.00953e-05
-4.74816e-05
-2.96645e-05
-1.57246e-05
-4.72774e-06
-0.00158332
-0.00182439
-0.00205129
-0.00226183
-0.00245009
-0.00260909
-0.00273418
-0.00282209
-0.00287088
-0.00288088
-0.00285637
-0.00280493
-0.00273351
-0.00264884
-0.00255606
-0.00245522
-0.00234384
-0.00222005
-0.00208182
-0.00192681
-0.00175612
-0.00157597
-0.00139393
-0.00121526
-0.00104374
-0.00088298
-0.00073626
-0.000605992
-0.000492449
-0.000394545
-0.000311144
-0.000241227
-0.000183646
-0.000136866
-9.95357e-05
-7.00662e-05
-4.71542e-05
-2.93545e-05
-1.56137e-05
-4.7227e-06
-0.0015398
-0.00177751
-0.00199896
-0.00220106
-0.00237922
-0.00252895
-0.0026454
-0.00272591
-0.00276957
-0.00277761
-0.00275543
-0.0027116
-0.00265408
-0.00258875
-0.00252021
-0.00244921
-0.00236912
-0.0022712
-0.00214937
-0.00200052
-0.00182796
-0.00164074
-0.00144893
-0.00125982
-0.00107861
-0.000909692
-0.000756383
-0.000620355
-0.000501691
-0.000399783
-0.000313349
-0.000241274
-0.000182184
-0.000134573
-9.67733e-05
-6.70788e-05
-4.41236e-05
-2.63958e-05
-1.32607e-05
-3.32654e-06
-0.00152523
-0.00176187
-0.0019791
-0.00217517
-0.00234766
-0.00249213
-0.00260388
-0.00268035
-0.00272086
-0.00272738
-0.00270593
-0.00266485
-0.00261164
-0.00255316
-0.00249401
-0.00243355
-0.00236375
-0.00227525
-0.00216149
-0.00201857
-0.00184903
-0.00166228
-0.00146847
-0.00127653
-0.00109209
-0.00092019
-0.000763973
-0.000625464
-0.000504952
-0.000401805
-0.000314367
-0.000241574
-0.000181776
-0.000133652
-9.54458e-05
-6.56157e-05
-4.26635e-05
-2.52256e-05
-1.24135e-05
-2.93967e-06
)
;

boundaryField
{
    inlet
    {
        type            zeroGradient;
    }
    outlet
    {
        type            fixedValue;
        value           uniform 0;
    }
    lowerWall
    {
        type            zeroGradient;
    }
    upperWall
    {
        type            zeroGradient;
    }
    defaultFaces
    {
        type            empty;
    }
}


// ************************************************************************* //
