/*--------------------------------*- C++ -*----------------------------------*\
| =========                 |                                                 |
| \\      /  F ield         | OpenFOAM: The Open Source CFD Toolbox           |
|  \\    /   O peration     | Version:  2112                                  |
|   \\  /    A nd           | Website:  www.openfoam.com                      |
|    \\/     M anipulation  |                                                 |
\*---------------------------------------------------------------------------*/
FoamFile
{
    version     2.0;
    format      ascii;
    arch        "LSB;label=32;scalar=64";
    class       surfaceScalarField;
    location    "0.37";
    object      phi;
}
// * * * * * * * * * * * * * * * * * * * * * * * * * * * * * * * * * * * * * //

dimensions      [0 3 -1 0 0 0 0];

oriented        oriented;

internalField   nonuniform List<scalar> 
3653
(
9.92218e-07
7.78199e-09
9.79201e-07
1.30167e-08
9.63568e-07
1.56335e-08
9.4824e-07
1.53277e-08
9.31589e-07
1.66511e-08
9.15187e-07
1.6402e-08
8.96899e-07
1.82881e-08
8.79851e-07
1.70478e-08
8.60659e-07
1.91924e-08
8.42965e-07
1.76938e-08
8.23235e-07
1.973e-08
8.04875e-07
1.83598e-08
7.84811e-07
2.00643e-08
7.64827e-07
1.99837e-08
7.44061e-07
2.07659e-08
7.22162e-07
2.18994e-08
7.01122e-07
2.10393e-08
6.75332e-07
2.57902e-08
6.53504e-07
2.18279e-08
6.23768e-07
2.97361e-08
5.97671e-07
2.60976e-08
5.66436e-07
3.12343e-08
5.31372e-07
3.50639e-08
4.94722e-07
3.665e-08
4.52032e-07
4.26906e-08
4.03435e-07
4.8597e-08
3.53976e-07
4.94587e-08
2.9579e-07
5.81863e-08
2.31409e-07
6.43811e-08
7.09805e-08
1.60428e-07
1.00248e-06
5.2975e-09
1.00664e-06
8.86402e-09
1.00853e-06
1.37407e-08
1.01046e-06
1.34018e-08
1.01087e-06
1.62354e-08
1.01209e-06
1.51797e-08
1.01082e-06
1.95614e-08
1.01188e-06
1.59836e-08
1.0083e-06
2.27724e-08
1.00903e-06
1.69715e-08
1.00425e-06
2.45107e-08
1.00246e-06
2.015e-08
9.98166e-07
2.43542e-08
9.93823e-07
2.43271e-08
9.88166e-07
2.64226e-08
9.83527e-07
2.65384e-08
9.7256e-07
3.20066e-08
9.69089e-07
2.92613e-08
9.54409e-07
3.65077e-08
9.4768e-07
3.64656e-08
9.31203e-07
4.25747e-08
9.1874e-07
4.36971e-08
8.96249e-07
5.75551e-08
8.83807e-07
4.9091e-08
8.50342e-07
7.61561e-08
8.31892e-07
6.70471e-08
7.90052e-07
9.12986e-08
7.53818e-07
9.44203e-08
6.93245e-07
1.24954e-07
1.21349e-07
6.42877e-07
1.00105e-06
4.24787e-09
1.00522e-06
4.69466e-09
1.00716e-06
1.18047e-08
1.01034e-06
1.02196e-08
1.01154e-06
1.50296e-08
1.01388e-06
1.28449e-08
1.01531e-06
1.81294e-08
1.01706e-06
1.42361e-08
1.01815e-06
2.1682e-08
1.01931e-06
1.58067e-08
1.02009e-06
2.37299e-08
1.02011e-06
2.01335e-08
1.02086e-06
2.3602e-08
1.01958e-06
2.56136e-08
1.0194e-06
2.65985e-08
1.01885e-06
2.70885e-08
1.01481e-06
3.60428e-08
1.01639e-06
2.76853e-08
1.00779e-06
4.51056e-08
1.0085e-06
3.57524e-08
1.0003e-06
5.07837e-08
9.95826e-07
4.8167e-08
9.87178e-07
6.62024e-08
9.80551e-07
5.57183e-08
9.66076e-07
9.06309e-08
9.55623e-07
7.75003e-08
9.39388e-07
1.07533e-07
9.18315e-07
1.15494e-07
8.96996e-07
1.46273e-07
1.48302e-07
8.70042e-07
1.0008e-06
3.44713e-09
1.00266e-06
2.83271e-09
1.0045e-06
9.96855e-09
1.00675e-06
7.97127e-09
1.00811e-06
1.36684e-08
1.01015e-06
1.08047e-08
1.01146e-06
1.68137e-08
1.01319e-06
1.25133e-08
1.01453e-06
2.03384e-08
1.01594e-06
1.43964e-08
1.01685e-06
2.28203e-08
1.01848e-06
1.84997e-08
1.01776e-06
2.43246e-08
1.02028e-06
2.30977e-08
1.01791e-06
2.89653e-08
1.02046e-06
2.45428e-08
1.01791e-06
3.85863e-08
1.01838e-06
2.72135e-08
1.01637e-06
4.71181e-08
1.01496e-06
3.7162e-08
1.01213e-06
5.36125e-08
1.00986e-06
5.04377e-08
1.00647e-06
6.9594e-08
1.00023e-06
6.19555e-08
9.98497e-07
9.23685e-08
9.89145e-07
8.68524e-08
9.83335e-07
1.13343e-07
9.77378e-07
1.21452e-07
9.68773e-07
1.54877e-07
1.63903e-07
9.53172e-07
1.0007e-06
2.74542e-09
1.00131e-06
2.22782e-09
1.00346e-06
7.81618e-09
1.00452e-06
6.91433e-09
1.00682e-06
1.13599e-08
1.00775e-06
9.87588e-09
1.00993e-06
1.46417e-08
1.01093e-06
1.15064e-08
1.0127e-06
1.85658e-08
1.01394e-06
1.31589e-08
1.01506e-06
2.17021e-08
1.01662e-06
1.69379e-08
1.01682e-06
2.41251e-08
1.01851e-06
2.14111e-08
1.0179e-06
2.95694e-08
1.01946e-06
2.29884e-08
1.01849e-06
3.95526e-08
1.01916e-06
2.65416e-08
1.01813e-06
4.81536e-08
1.01745e-06
3.78419e-08
1.01617e-06
5.48959e-08
1.01478e-06
5.18224e-08
1.01319e-06
7.11893e-08
1.01041e-06
6.47323e-08
1.00886e-06
9.39166e-08
1.0056e-06
9.011e-08
1.00283e-06
1.16118e-07
1.00039e-06
1.23886e-07
1.00016e-06
1.55109e-07
1.6363e-07
1.00044e-06
1.00069e-06
2.05911e-09
1.00099e-06
1.92106e-09
1.00263e-06
6.17508e-09
1.00363e-06
5.91586e-09
1.00552e-06
9.47606e-09
1.0066e-06
8.79723e-09
1.00861e-06
1.26228e-08
1.00949e-06
1.06283e-08
1.01165e-06
1.64108e-08
1.01244e-06
1.23668e-08
1.0142e-06
1.99429e-08
1.01547e-06
1.56693e-08
1.01631e-06
2.32828e-08
1.01772e-06
1.99967e-08
1.01851e-06
2.87799e-08
1.01865e-06
2.28475e-08
1.02047e-06
3.77341e-08
1.0193e-06
2.77101e-08
1.02088e-06
4.65734e-08
1.01984e-06
3.8882e-08
1.02024e-06
5.44996e-08
1.01921e-06
5.28517e-08
1.02021e-06
7.01869e-08
1.01751e-06
6.7432e-08
1.01965e-06
9.17773e-08
1.01761e-06
9.21556e-08
1.01844e-06
1.15289e-07
1.01933e-06
1.22992e-07
1.02278e-06
1.51657e-07
1.61832e-07
1.02458e-06
1.00071e-06
1.35002e-09
1.00062e-06
2.01253e-09
1.00227e-06
4.52665e-09
1.00281e-06
5.36994e-09
1.00481e-06
7.48297e-09
1.00574e-06
7.85739e-09
1.00771e-06
1.06544e-08
1.00887e-06
9.46916e-09
1.01076e-06
1.45243e-08
1.01198e-06
1.11427e-08
1.01371e-06
1.82162e-08
1.0151e-06
1.42784e-08
1.01647e-06
2.19156e-08
1.01787e-06
1.85948e-08
1.01917e-06
2.74761e-08
1.01981e-06
2.22134e-08
1.02183e-06
3.57106e-08
1.02148e-06
2.80649e-08
1.02371e-06
4.43369e-08
1.02342e-06
3.91763e-08
1.02463e-06
5.32891e-08
1.0251e-06
5.23788e-08
1.02635e-06
6.89414e-08
1.02628e-06
6.7495e-08
1.02892e-06
8.91379e-08
1.02963e-06
9.14455e-08
1.03247e-06
1.12452e-07
1.03572e-06
1.19744e-07
1.04133e-06
1.46042e-07
1.54898e-07
1.04827e-06
1.00053e-06
8.17196e-10
1.00061e-06
1.93241e-09
1.0019e-06
3.24115e-09
1.00261e-06
4.65399e-09
1.00434e-06
5.75355e-09
1.00538e-06
6.82613e-09
1.0074e-06
8.62783e-09
1.00845e-06
8.42441e-09
1.01074e-06
1.22352e-08
1.01172e-06
1.01623e-08
1.014e-06
1.59343e-08
1.01518e-06
1.30919e-08
1.01725e-06
1.98455e-08
1.0184e-06
1.74467e-08
1.02076e-06
2.51189e-08
1.02112e-06
2.18516e-08
1.02419e-06
3.26443e-08
1.0241e-06
2.81577e-08
1.02713e-06
4.13008e-08
1.02753e-06
3.87775e-08
1.02998e-06
5.08401e-08
1.03084e-06
5.15191e-08
1.03404e-06
6.57447e-08
1.03482e-06
6.67082e-08
1.03914e-06
8.48166e-08
1.04148e-06
8.91138e-08
1.04638e-06
1.07544e-07
1.05091e-06
1.1522e-07
1.05926e-06
1.37689e-07
1.47694e-07
1.06646e-06
1.00048e-06
3.3818e-10
1.00059e-06
1.82127e-09
1.00174e-06
2.08766e-09
1.00253e-06
3.86572e-09
1.00408e-06
4.20183e-09
1.00537e-06
5.54256e-09
1.00716e-06
6.83806e-09
1.00862e-06
6.96463e-09
1.01071e-06
1.0137e-08
1.01206e-06
8.81486e-09
1.01445e-06
1.35443e-08
1.01578e-06
1.1763e-08
1.01828e-06
1.73443e-08
1.01961e-06
1.61142e-08
1.02231e-06
2.24279e-08
1.02333e-06
2.08289e-08
1.02655e-06
2.94236e-08
1.02734e-06
2.73628e-08
1.03073e-06
3.79164e-08
1.03211e-06
3.73923e-08
1.03518e-06
4.77748e-08
1.0372e-06
4.94966e-08
1.04112e-06
6.18283e-08
1.04342e-06
6.44059e-08
1.04866e-06
7.95754e-08
1.05269e-06
8.50865e-08
1.05896e-06
1.01276e-07
1.06536e-06
1.08813e-07
1.07466e-06
1.28395e-07
1.37774e-07
1.08458e-06
1.00036e-06
-2.22399e-11
1.00063e-06
1.55036e-09
1.00165e-06
1.06987e-09
1.00257e-06
2.94818e-09
1.00409e-06
2.6806e-09
1.00543e-06
4.19905e-09
1.00736e-06
4.90792e-09
1.00884e-06
5.48138e-09
1.01117e-06
7.81181e-09
1.01262e-06
7.36559e-09
1.01524e-06
1.09269e-08
1.01677e-06
1.02299e-08
1.01959e-06
1.45243e-08
1.02116e-06
1.4543e-08
1.0243e-06
1.92862e-08
1.02573e-06
1.94032e-08
1.0293e-06
2.58504e-08
1.03084e-06
2.58194e-08
1.03466e-06
3.41023e-08
1.0368e-06
3.52506e-08
1.04072e-06
4.38535e-08
1.04346e-06
4.67583e-08
1.04836e-06
5.69317e-08
1.05181e-06
6.09543e-08
1.05798e-06
7.34025e-08
1.0633e-06
7.97689e-08
1.07096e-06
9.36128e-08
1.07831e-06
1.01466e-07
1.08903e-06
1.17671e-07
1.27341e-07
1.09947e-06
1.00029e-06
-3.07799e-10
1.0007e-06
1.13147e-09
1.00164e-06
1.37469e-10
1.00276e-06
1.82498e-09
1.0042e-06
1.24392e-09
1.0058e-06
2.59768e-09
1.00767e-06
3.03228e-09
1.00944e-06
3.71066e-09
1.01178e-06
5.47235e-09
1.01352e-06
5.62733e-09
1.01626e-06
8.19033e-09
1.0181e-06
8.38798e-09
1.02109e-06
1.15301e-08
1.02315e-06
1.24917e-08
1.02637e-06
1.6059e-08
1.02855e-06
1.72303e-08
1.03218e-06
2.22117e-08
1.03458e-06
2.34202e-08
1.03867e-06
3.00178e-08
1.04166e-06
3.22617e-08
1.0461e-06
3.9408e-08
1.0498e-06
4.30657e-08
1.05526e-06
5.14723e-08
1.0599e-06
5.63099e-08
1.06671e-06
6.65882e-08
1.07324e-06
7.32471e-08
1.08169e-06
8.51535e-08
1.09029e-06
9.28691e-08
1.10152e-06
1.06438e-07
1.15542e-07
1.11332e-06
1.00023e-06
-5.40736e-10
1.00079e-06
5.75093e-10
1.00174e-06
-8.09531e-10
1.00299e-06
5.71867e-10
1.00453e-06
-2.99095e-10
1.00623e-06
8.983e-10
1.00827e-06
9.91523e-10
1.01018e-06
1.80789e-09
1.01265e-06
2.9932e-09
1.01465e-06
3.63028e-09
1.0175e-06
5.34306e-09
1.0197e-06
6.18498e-09
1.02285e-06
8.38489e-09
1.02532e-06
1.00186e-08
1.02876e-06
1.26239e-08
1.03147e-06
1.45121e-08
1.03531e-06
1.83792e-08
1.03842e-06
2.03058e-08
1.04284e-06
2.55977e-08
1.04653e-06
2.85719e-08
1.05152e-06
3.4421e-08
1.05598e-06
3.86057e-08
1.062e-06
4.54522e-08
1.06763e-06
5.06807e-08
1.07502e-06
5.91909e-08
1.08245e-06
6.58226e-08
1.0917e-06
7.59032e-08
1.10107e-06
8.34991e-08
1.1129e-06
9.46031e-08
1.03359e-07
1.12509e-06
1.00022e-06
-7.60492e-10
1.00093e-06
-1.34062e-10
1.00196e-06
-1.83693e-09
1.00343e-06
-9.05316e-10
1.00507e-06
-1.93415e-09
1.00699e-06
-1.02294e-09
1.00911e-06
-1.12906e-09
1.01124e-06
-3.16864e-10
1.01379e-06
4.33888e-10
1.01609e-06
1.3394e-09
1.01903e-06
2.40292e-09
1.0216e-06
3.61047e-09
1.02483e-06
5.15501e-09
1.0278e-06
7.04808e-09
1.03133e-06
9.09519e-09
1.03461e-06
1.12306e-08
1.03863e-06
1.4357e-08
1.04237e-06
1.65723e-08
1.0471e-06
2.08636e-08
1.05147e-06
2.42074e-08
1.05683e-06
2.90561e-08
1.06208e-06
3.3359e-08
1.06849e-06
3.90343e-08
1.07497e-06
4.42062e-08
1.08282e-06
5.13349e-08
1.09102e-06
5.7623e-08
1.10075e-06
6.61772e-08
1.11088e-06
7.33663e-08
1.12291e-06
8.25798e-08
9.04752e-08
1.13579e-06
1.00021e-06
-9.73717e-10
1.00108e-06
-1.00133e-09
1.00223e-06
-2.99014e-09
1.00393e-06
-2.59873e-09
1.00573e-06
-3.73984e-09
1.00783e-06
-3.12506e-09
1.01011e-06
-3.40097e-09
1.01246e-06
-2.66757e-09
1.01516e-06
-2.26403e-09
1.01775e-06
-1.25024e-09
1.02081e-06
-6.62945e-10
1.02375e-06
6.7431e-10
1.02714e-06
1.76436e-09
1.03048e-06
3.70613e-09
1.03422e-06
5.35199e-09
1.03793e-06
7.5279e-09
1.04222e-06
1.00609e-08
1.04647e-06
1.23274e-08
1.05153e-06
1.58029e-08
1.05644e-06
1.92974e-08
1.06219e-06
2.33016e-08
1.06807e-06
2.74848e-08
1.07488e-06
3.22233e-08
1.08201e-06
3.7074e-08
1.09029e-06
4.3057e-08
1.09906e-06
4.88464e-08
1.10921e-06
5.60315e-08
1.11987e-06
6.2707e-08
1.13212e-06
7.03267e-08
7.76538e-08
1.14494e-06
1.00033e-06
-1.3036e-09
1.00144e-06
-2.10839e-09
1.0029e-06
-4.45579e-09
1.00486e-06
-4.56073e-09
1.00692e-06
-5.79029e-09
1.00921e-06
-5.42398e-09
1.01165e-06
-5.83763e-09
1.01421e-06
-5.22225e-09
1.01703e-06
-5.08443e-09
1.01989e-06
-4.11766e-09
1.02307e-06
-3.83978e-09
1.02629e-06
-2.54772e-09
1.02981e-06
-1.75242e-09
1.03347e-06
4.70916e-11
1.0374e-06
1.41952e-09
1.04148e-06
3.44594e-09
1.04604e-06
5.50434e-09
1.05071e-06
7.65801e-09
1.05603e-06
1.04827e-08
1.06145e-06
1.38761e-08
1.06753e-06
1.72175e-08
1.07398e-06
2.1038e-08
1.08112e-06
2.50833e-08
1.08874e-06
2.945e-08
1.09734e-06
3.44629e-08
1.10658e-06
3.96087e-08
1.117e-06
4.56121e-08
1.12804e-06
5.16605e-08
1.14034e-06
5.80315e-08
6.4231e-08
1.15376e-06
1.00038e-06
-1.68666e-09
1.00188e-06
-3.6014e-09
1.00375e-06
-6.32694e-09
1.00607e-06
-6.88676e-09
1.00838e-06
-8.09345e-09
1.01089e-06
-7.9379e-09
1.0135e-06
-8.44245e-09
1.01629e-06
-8.01632e-09
1.01927e-06
-8.06602e-09
1.02243e-06
-7.27277e-09
1.02579e-06
-7.20818e-09
1.02929e-06
-6.04613e-09
1.03299e-06
-5.44686e-09
1.03697e-06
-3.93316e-09
1.04112e-06
-2.7374e-09
1.04554e-06
-9.69868e-10
1.05042e-06
6.28027e-10
1.05546e-06
2.61706e-09
1.061e-06
4.9449e-09
1.06679e-06
8.08362e-09
1.0732e-06
1.08055e-08
1.08012e-06
1.41226e-08
1.08761e-06
1.75905e-08
1.09565e-06
2.14063e-08
1.10455e-06
2.55674e-08
1.11409e-06
3.00616e-08
1.12469e-06
3.50155e-08
1.136e-06
4.03464e-08
1.14832e-06
4.57166e-08
5.12984e-08
1.16125e-06
1.00082e-06
-2.50237e-09
1.00291e-06
-5.69429e-09
1.00528e-06
-8.69664e-09
1.0079e-06
-9.50506e-09
1.01042e-06
-1.06139e-08
1.01314e-06
-1.06566e-08
1.01596e-06
-1.12693e-08
1.01901e-06
-1.10677e-08
1.02217e-06
-1.12218e-08
1.0256e-06
-1.0701e-08
1.02916e-06
-1.0771e-08
1.03285e-06
-9.73723e-09
1.03668e-06
-9.27944e-09
1.04086e-06
-8.10679e-09
1.04523e-06
-7.11305e-09
1.04991e-06
-5.64529e-09
1.05495e-06
-4.41528e-09
1.06025e-06
-2.68481e-09
1.06593e-06
-7.32493e-10
1.07208e-06
1.93905e-09
1.07882e-06
4.06548e-09
1.0861e-06
6.84004e-09
1.09383e-06
9.86216e-09
1.10212e-06
1.31181e-08
1.11118e-06
1.65077e-08
1.12096e-06
2.02739e-08
1.13172e-06
2.42567e-08
1.14333e-06
2.87381e-08
1.15594e-06
3.31093e-08
3.76863e-08
1.16955e-06
1.00176e-06
-4.26592e-09
1.00529e-06
-9.22252e-09
1.00848e-06
-1.18824e-08
1.01149e-06
-1.25204e-08
1.0142e-06
-1.33228e-08
1.01722e-06
-1.36756e-08
1.02029e-06
-1.43409e-08
1.02356e-06
-1.43354e-08
1.02673e-06
-1.43867e-08
1.03016e-06
-1.41409e-08
1.03359e-06
-1.41972e-08
1.03715e-06
-1.3301e-08
1.04079e-06
-1.29138e-08
1.04476e-06
-1.20812e-08
1.04894e-06
-1.12911e-08
1.05352e-06
-1.02255e-08
1.0584e-06
-9.29557e-09
1.06349e-06
-7.77636e-09
1.06891e-06
-6.14668e-09
1.07491e-06
-4.06276e-09
1.08156e-06
-2.58159e-09
1.08884e-06
-4.45074e-10
1.09662e-06
2.08207e-09
1.10495e-06
4.79138e-09
1.11403e-06
7.42162e-09
1.12381e-06
1.04957e-08
1.13458e-06
1.34903e-08
1.14626e-06
1.70613e-08
1.1589e-06
2.04698e-08
2.43198e-08
1.17226e-06
1.00299e-06
-7.25187e-09
1.0069e-06
-1.31372e-08
1.00969e-06
-1.46689e-08
1.0119e-06
-1.47283e-08
1.0137e-06
-1.51294e-08
1.01553e-06
-1.55081e-08
1.01702e-06
-1.58312e-08
1.01836e-06
-1.56685e-08
1.01944e-06
-1.54726e-08
1.02058e-06
-1.52803e-08
1.02134e-06
-1.49502e-08
1.02217e-06
-1.41315e-08
1.02306e-06
-1.38059e-08
1.0243e-06
-1.33196e-08
1.02565e-06
-1.26424e-08
1.02716e-06
-1.17338e-08
1.0288e-06
-1.09406e-08
1.03092e-06
-9.89436e-09
1.03369e-06
-8.9158e-09
1.03735e-06
-7.72815e-09
1.04139e-06
-6.61369e-09
1.04584e-06
-4.89545e-09
1.0511e-06
-3.17769e-09
1.05743e-06
-1.53984e-09
1.06502e-06
-1.75095e-10
1.07403e-06
1.48645e-09
1.08429e-06
3.2306e-09
1.09583e-06
5.52433e-09
1.10852e-06
7.78179e-09
1.02124e-08
1.12263e-06
9.92748e-07
9.79611e-07
9.64942e-07
9.50214e-07
9.35084e-07
9.19576e-07
9.03745e-07
8.88077e-07
8.72604e-07
8.57324e-07
8.42373e-07
8.28242e-07
8.14436e-07
8.01116e-07
7.88474e-07
7.7674e-07
7.658e-07
7.55905e-07
7.46989e-07
7.39261e-07
7.32648e-07
7.27752e-07
7.24575e-07
7.23035e-07
7.2286e-07
7.24346e-07
7.27577e-07
7.33101e-07
7.40883e-07
7.51095e-07
2.70771e-07
-1.10343e-07
3.662e-07
-9.54291e-08
4.5414e-07
-8.79397e-08
5.15217e-07
-6.10767e-08
5.76562e-07
-6.13455e-08
6.24429e-07
-4.78667e-08
6.64377e-07
-3.99483e-08
7.17709e-07
-5.3332e-08
7.75092e-07
-5.73831e-08
-1.15188e-07
8.9028e-07
7.01349e-07
-1.68816e-07
7.47546e-07
-1.41625e-07
7.96869e-07
-1.37263e-07
8.4087e-07
-1.05078e-07
8.60628e-07
-8.1103e-08
8.90979e-07
-7.82177e-08
9.26719e-07
-7.56886e-08
9.4546e-07
-7.20728e-08
9.99536e-07
-1.11459e-07
-1.54415e-07
1.03876e-06
8.83435e-07
-1.82208e-07
8.98415e-07
-1.56606e-07
8.96256e-07
-1.35104e-07
9.21738e-07
-1.3056e-07
9.18512e-07
-7.78766e-08
9.47401e-07
-1.07107e-07
9.73262e-07
-1.0155e-07
1.01487e-06
-1.13677e-07
1.0121e-06
-1.08694e-07
-1.89265e-07
1.04695e-06
9.53699e-07
-1.82735e-07
9.57215e-07
-1.60122e-07
9.55777e-07
-1.33666e-07
9.64166e-07
-1.38949e-07
9.78676e-07
-9.23859e-08
9.8537e-07
-1.13801e-07
1.00478e-06
-1.20956e-07
1.02703e-06
-1.35933e-07
1.03619e-06
-1.17853e-07
-1.87757e-07
1.03468e-06
9.87997e-07
-1.70296e-07
9.89862e-07
-1.61986e-07
9.87323e-07
-1.31127e-07
9.91164e-07
-1.42791e-07
9.99985e-07
-1.01206e-07
1.01064e-06
-1.24458e-07
1.01286e-06
-1.23171e-07
1.02503e-06
-1.4811e-07
1.04073e-06
-1.3355e-07
-1.98569e-07
1.05154e-06
1.01865e-06
-1.64369e-07
1.01366e-06
-1.56993e-07
1.01192e-06
-1.29391e-07
1.00971e-06
-1.40574e-07
1.02109e-06
-1.12595e-07
1.02569e-06
-1.29058e-07
1.03186e-06
-1.29336e-07
1.03793e-06
-1.54179e-07
1.04824e-06
-1.43862e-07
-1.98378e-07
1.04805e-06
1.0385e-06
-1.54598e-07
1.03405e-06
-1.52547e-07
1.03304e-06
-1.28383e-07
1.0313e-06
-1.38835e-07
1.03523e-06
-1.1652e-07
1.03727e-06
-1.31101e-07
1.03929e-06
-1.31357e-07
1.04051e-06
-1.55395e-07
1.0478e-06
-1.51151e-07
-1.99041e-07
1.04846e-06
1.05935e-06
-1.47485e-07
1.05229e-06
-1.45488e-07
1.05009e-06
-1.26188e-07
1.04533e-06
-1.34065e-07
1.04798e-06
-1.19174e-07
1.04801e-06
-1.31134e-07
1.04875e-06
-1.32099e-07
1.04661e-06
-1.5325e-07
1.04894e-06
-1.53482e-07
-1.94579e-07
1.04448e-06
1.07585e-06
-1.38759e-07
1.0682e-06
-1.37837e-07
1.06441e-06
-1.22397e-07
1.05927e-06
-1.28928e-07
1.05812e-06
-1.18016e-07
1.05569e-06
-1.28703e-07
1.05293e-06
-1.29345e-07
1.0484e-06
-1.48716e-07
1.04731e-06
-1.52398e-07
-1.87718e-07
1.04045e-06
1.09081e-06
-1.30108e-07
1.08201e-06
-1.29034e-07
1.07665e-06
-1.17035e-07
1.06993e-06
-1.22211e-07
1.06662e-06
-1.14705e-07
1.06175e-06
-1.23835e-07
1.05704e-06
-1.2463e-07
1.05112e-06
-1.42795e-07
1.04637e-06
-1.47647e-07
-1.76622e-07
1.03527e-06
1.10358e-06
-1.20363e-07
1.09397e-06
-1.19427e-07
1.08698e-06
-1.10041e-07
1.07904e-06
-1.14278e-07
1.07329e-06
-1.08956e-07
1.06674e-06
-1.17283e-07
1.06011e-06
-1.17998e-07
1.05113e-06
-1.33814e-07
1.04332e-06
-1.39834e-07
-1.64971e-07
1.03167e-06
1.11459e-06
-1.09869e-07
1.10408e-06
-1.08913e-07
1.09567e-06
-1.01629e-07
1.08646e-06
-1.05071e-07
1.07883e-06
-1.0132e-07
1.0701e-06
-1.08559e-07
1.06185e-06
-1.0975e-07
1.05169e-06
-1.23651e-07
1.04163e-06
-1.29774e-07
-1.50701e-07
1.02736e-06
1.12439e-06
-9.84681e-08
1.11304e-06
-9.75665e-08
1.10317e-06
-9.17584e-08
1.09268e-06
-9.4581e-08
1.08339e-06
-9.20271e-08
1.07316e-06
-9.83322e-08
1.06308e-06
-9.96652e-08
1.05096e-06
-1.11529e-07
1.03894e-06
-1.17758e-07
-1.35514e-07
1.02375e-06
1.13276e-06
-8.62882e-08
1.12054e-06
-8.53462e-08
1.10954e-06
-8.07509e-08
1.09791e-06
-8.29599e-08
1.08708e-06
-8.11922e-08
1.0753e-06
-8.65543e-08
1.06386e-06
-8.82261e-08
1.0506e-06
-9.82653e-08
1.0369e-06
-1.04062e-07
-1.18913e-07
1.0203e-06
1.14075e-06
-7.3277e-08
1.12769e-06
-7.22903e-08
1.11548e-06
-6.85425e-08
1.10267e-06
-7.01487e-08
1.09046e-06
-6.89812e-08
1.07735e-06
-7.34441e-08
1.06437e-06
-7.52472e-08
1.04974e-06
-8.36291e-08
1.03471e-06
-8.90298e-08
-1.01369e-07
1.01716e-06
1.14772e-06
-5.97427e-08
1.13389e-06
-5.84609e-08
1.12075e-06
-5.54013e-08
1.10695e-06
-5.63466e-08
1.09355e-06
-5.55813e-08
1.07924e-06
-5.91406e-08
1.06506e-06
-6.10697e-08
1.04936e-06
-6.79217e-08
1.03312e-06
-7.27943e-08
-8.28435e-08
1.0146e-06
1.15511e-06
-4.53046e-08
1.14029e-06
-4.3635e-08
1.12594e-06
-4.1053e-08
1.11081e-06
-4.12215e-08
1.09601e-06
-4.07763e-08
1.0803e-06
-4.34384e-08
1.06471e-06
-4.54787e-08
1.04772e-06
-5.09325e-08
1.03033e-06
-5.53973e-08
-6.3327e-08
1.01081e-06
1.15659e-06
-2.96366e-08
1.14047e-06
-2.75065e-08
1.12481e-06
-2.53954e-08
1.10845e-06
-2.48601e-08
1.09239e-06
-2.47196e-08
1.0754e-06
-2.64522e-08
1.05847e-06
-2.85486e-08
1.04007e-06
-3.25315e-08
1.02115e-06
-3.64698e-08
-4.2168e-08
9.99986e-07
1.10418e-06
-1.11875e-08
1.08642e-06
-9.75259e-09
1.06963e-06
-8.59928e-09
1.05295e-06
-8.18485e-09
1.0367e-06
-8.46379e-09
1.0198e-06
-9.5541e-09
1.00247e-06
-1.12214e-08
9.83444e-07
-1.35061e-08
9.63126e-07
-1.61518e-08
-1.91256e-08
9.40084e-07
7.39908e-07
7.30155e-07
7.21556e-07
7.13371e-07
7.04907e-07
6.95353e-07
6.84132e-07
6.70626e-07
6.54474e-07
6.35348e-07
9.38014e-08
-9.38014e-08
8.64377e-08
7.36375e-09
5.59181e-08
3.05196e-08
-5.87264e-08
1.14644e-07
-3.25088e-07
2.66361e-07
-5.8274e-07
2.57652e-07
-7.68682e-07
1.85942e-07
-9.02278e-07
1.33596e-07
-9.66669e-07
6.43911e-08
-9.68733e-07
2.06417e-09
-9.19078e-07
-4.96553e-08
-8.29102e-07
-8.99761e-08
-7.13474e-07
-1.15628e-07
-5.79556e-07
-1.33918e-07
-4.33158e-07
-1.46398e-07
-2.73247e-07
-1.5991e-07
-1.1712e-07
-1.56127e-07
2.66665e-08
-1.43787e-07
1.48892e-07
-1.22226e-07
2.46119e-07
-9.72271e-08
3.19954e-07
-7.38349e-08
3.74656e-07
-5.47022e-08
4.14074e-07
-3.94173e-08
4.408e-07
-2.67261e-08
4.56285e-07
-1.54855e-08
4.6158e-07
-5.29411e-09
4.57747e-07
3.83273e-09
4.46503e-07
1.12437e-08
4.29877e-07
1.66257e-08
4.10659e-07
1.92186e-08
3.91115e-07
1.95439e-08
3.73186e-07
1.79294e-08
3.57712e-07
1.54738e-08
3.45209e-07
1.25028e-08
3.35264e-07
9.9449e-09
3.27786e-07
7.4778e-09
3.21924e-07
5.86223e-09
3.17673e-07
4.25124e-09
3.14119e-07
3.55331e-09
2.58305e-09
8.21661e-08
-1.75968e-07
1.09214e-07
-1.96839e-08
-2.61478e-08
1.65881e-07
-3.00187e-07
3.88684e-07
-5.4422e-07
5.10393e-07
-7.1646e-07
4.29893e-07
-8.41877e-07
3.1136e-07
-9.24231e-07
2.15949e-07
-9.5019e-07
9.03502e-08
-9.25031e-07
-2.30948e-08
-8.50993e-07
-1.23693e-07
-7.50854e-07
-1.90116e-07
-6.27901e-07
-2.38581e-07
-4.90625e-07
-2.71195e-07
-3.44413e-07
-2.92609e-07
-1.86784e-07
-3.1754e-07
-3.04347e-08
-3.12476e-07
1.18118e-07
-2.92339e-07
2.45839e-07
-2.49948e-07
3.49325e-07
-2.00713e-07
4.30456e-07
-1.54966e-07
4.94241e-07
-1.18487e-07
5.44927e-07
-9.01029e-08
5.85519e-07
-6.73179e-08
6.18102e-07
-4.80691e-08
6.44006e-07
-3.11978e-08
6.63218e-07
-1.53792e-08
6.75544e-07
-1.0823e-09
6.80884e-07
1.12856e-08
6.80849e-07
1.92533e-08
6.77154e-07
2.32398e-08
6.71992e-07
2.30912e-08
6.66515e-07
2.09502e-08
6.61767e-07
1.72516e-08
6.57674e-07
1.40378e-08
6.54512e-07
1.06396e-08
6.51776e-07
8.59773e-09
6.49564e-07
6.46408e-09
6.47458e-07
5.65918e-09
4.50804e-09
-3.28643e-08
-1.43103e-07
-1.43142e-07
9.05941e-08
-2.53694e-07
2.76433e-07
-3.89542e-07
5.24531e-07
-5.05214e-07
6.26066e-07
-5.956e-07
5.20279e-07
-6.75082e-07
3.90841e-07
-7.20083e-07
2.6095e-07
-7.2287e-07
9.3137e-08
-6.80164e-07
-6.58006e-08
-5.99159e-07
-2.04698e-07
-4.95805e-07
-2.9347e-07
-3.88194e-07
-3.46191e-07
-2.72309e-07
-3.8708e-07
-1.52483e-07
-4.12435e-07
-2.74097e-08
-4.42613e-07
1.02099e-07
-4.41985e-07
2.24856e-07
-4.15096e-07
3.33919e-07
-3.5901e-07
4.22514e-07
-2.89308e-07
4.89615e-07
-2.22067e-07
5.41141e-07
-1.70013e-07
5.82923e-07
-1.31884e-07
6.17075e-07
-1.0147e-07
6.44883e-07
-7.58771e-08
6.68895e-07
-5.52099e-08
6.91096e-07
-3.75798e-08
7.1132e-07
-2.13069e-08
7.27775e-07
-5.16905e-09
7.38794e-07
8.2346e-09
7.44351e-07
1.76823e-08
7.46024e-07
2.14184e-08
7.45536e-07
2.14379e-08
7.44512e-07
1.82759e-08
7.43713e-07
1.48369e-08
7.4344e-07
1.09127e-08
7.43733e-07
8.30385e-09
7.44153e-07
6.04424e-09
7.44831e-07
4.98183e-09
4.13501e-09
-2.48557e-08
-1.18248e-07
-1.09929e-07
1.75667e-07
-1.85652e-07
3.52156e-07
-2.91672e-07
6.30552e-07
-3.64316e-07
6.9871e-07
-4.14177e-07
5.7014e-07
-4.51943e-07
4.28608e-07
-4.64198e-07
2.73205e-07
-4.46452e-07
7.5391e-08
-3.91069e-07
-1.21183e-07
-3.0926e-07
-2.86507e-07
-2.1174e-07
-3.9099e-07
-1.11842e-07
-4.46089e-07
-1.69951e-08
-4.81927e-07
7.73766e-08
-5.06807e-07
1.73483e-07
-5.3872e-07
2.72025e-07
-5.40526e-07
3.58622e-07
-5.01694e-07
4.33837e-07
-4.34225e-07
4.99827e-07
-3.55299e-07
5.51071e-07
-2.73311e-07
5.87347e-07
-2.06289e-07
6.17042e-07
-1.6158e-07
6.44208e-07
-1.28636e-07
6.66204e-07
-9.78724e-08
6.81732e-07
-7.07382e-08
6.94237e-07
-5.00844e-08
7.08035e-07
-3.51056e-08
7.24136e-07
-2.12698e-08
7.40379e-07
-8.0081e-09
7.53672e-07
4.38909e-09
7.62403e-07
1.2687e-08
7.66684e-07
1.71574e-08
7.67778e-07
1.7182e-08
7.67286e-07
1.53293e-08
7.6632e-07
1.18783e-08
7.65741e-07
8.88264e-09
7.65544e-07
6.24102e-09
7.65868e-07
4.65802e-09
3.59806e-09
-4.16588e-10
-1.17831e-07
-1.25623e-07
3.00874e-07
-1.39858e-07
3.66391e-07
-1.35202e-07
6.25896e-07
-1.32405e-07
6.95913e-07
-1.47239e-07
5.84974e-07
-1.60171e-07
4.41539e-07
-1.48311e-07
2.61345e-07
-1.17667e-07
4.47467e-08
-6.72983e-08
-1.71552e-07
-5.79599e-09
-3.4801e-07
6.07632e-08
-4.57549e-07
1.31484e-07
-5.1681e-07
2.0186e-07
-5.52303e-07
2.78567e-07
-5.83513e-07
3.54e-07
-6.14153e-07
4.31545e-07
-6.18071e-07
4.95741e-07
-5.6589e-07
5.35235e-07
-4.73719e-07
5.65452e-07
-3.85516e-07
5.96731e-07
-3.0459e-07
6.20343e-07
-2.29901e-07
6.3574e-07
-1.76977e-07
6.52287e-07
-1.45183e-07
6.71954e-07
-1.1754e-07
6.87821e-07
-8.66049e-08
6.95595e-07
-5.7858e-08
6.98779e-07
-3.82899e-08
7.03694e-07
-2.61852e-08
7.13495e-07
-1.7809e-08
7.27114e-07
-9.22975e-09
7.41479e-07
-1.67817e-09
7.53726e-07
4.91034e-09
7.62449e-07
8.45893e-09
7.67628e-07
1.01509e-08
7.70107e-07
9.39903e-09
7.71025e-07
7.96469e-09
7.71187e-07
6.07873e-09
7.71203e-07
4.6417e-09
3.40032e-09
-5.25905e-08
-6.52405e-08
-5.72546e-08
3.05538e-07
3.71949e-08
2.71941e-07
6.65187e-08
5.96572e-07
1.0089e-07
6.61543e-07
1.24266e-07
5.61597e-07
1.51389e-07
4.14416e-07
1.89256e-07
2.23478e-07
2.25342e-07
8.66088e-09
2.65207e-07
-2.11416e-07
2.99531e-07
-3.82334e-07
3.32474e-07
-4.90492e-07
3.68021e-07
-5.52357e-07
4.06574e-07
-5.90856e-07
4.58268e-07
-6.35208e-07
5.09945e-07
-6.6583e-07
5.5347e-07
-6.61596e-07
5.94358e-07
-6.06777e-07
6.18756e-07
-4.98117e-07
6.206e-07
-3.8736e-07
6.25134e-07
-3.09124e-07
6.40054e-07
-2.44821e-07
6.51751e-07
-1.88674e-07
6.57976e-07
-1.51408e-07
6.67776e-07
-1.2734e-07
6.82697e-07
-1.01527e-07
6.94814e-07
-6.99749e-08
6.98435e-07
-4.19107e-08
6.96157e-07
-2.3907e-08
6.94771e-07
-1.64232e-08
6.98924e-07
-1.33831e-08
7.09136e-07
-1.18901e-08
7.22872e-07
-8.82525e-09
7.37219e-07
-5.88826e-09
7.49695e-07
-2.32522e-09
7.59181e-07
-8.66608e-11
7.65538e-07
1.60725e-09
7.69321e-07
2.29594e-09
7.71318e-07
2.64503e-09
2.65314e-09
-2.26312e-07
1.61071e-07
-5.14158e-08
1.30642e-07
9.1858e-08
1.28667e-07
2.97389e-07
3.91041e-07
4.16248e-07
5.42684e-07
4.79788e-07
4.98057e-07
5.17215e-07
3.76989e-07
5.45698e-07
1.94995e-07
5.67849e-07
-1.34899e-08
5.8067e-07
-2.24237e-07
5.83936e-07
-3.856e-07
5.89414e-07
-4.9597e-07
6.06479e-07
-5.69422e-07
6.35001e-07
-6.19377e-07
6.64113e-07
-6.6432e-07
6.86606e-07
-6.88323e-07
6.89304e-07
-6.64294e-07
6.78676e-07
-5.96149e-07
6.74823e-07
-4.94265e-07
6.66216e-07
-3.78752e-07
6.51018e-07
-2.93926e-07
6.4843e-07
-2.42233e-07
6.5857e-07
-1.98814e-07
6.67044e-07
-1.59882e-07
6.71052e-07
-1.31348e-07
6.77683e-07
-1.08158e-07
6.88883e-07
-8.11748e-08
6.98977e-07
-5.20043e-08
7.02879e-07
-2.78092e-08
7.01391e-07
-1.49358e-08
6.99085e-07
-1.10771e-08
7.0023e-07
-1.30353e-08
7.06214e-07
-1.4809e-08
7.16365e-07
-1.60393e-08
7.28628e-07
-1.45876e-08
7.41011e-07
-1.24698e-08
7.51864e-07
-9.24605e-09
7.60044e-07
-5.88373e-09
7.66204e-07
-3.51488e-09
-3.01547e-10
6.40193e-07
4.11159e-07
4.50668e-07
3.20167e-07
3.28585e-07
2.5075e-07
4.08141e-07
3.11485e-07
5.62171e-07
3.88654e-07
6.81393e-07
3.78835e-07
7.62102e-07
2.96279e-07
8.11901e-07
1.45196e-07
8.39382e-07
-4.09705e-08
8.4096e-07
-2.25815e-07
8.31929e-07
-3.7657e-07
8.31106e-07
-4.95147e-07
8.46319e-07
-5.84636e-07
8.69416e-07
-6.42474e-07
8.79781e-07
-6.74685e-07
8.64172e-07
-6.72713e-07
8.29787e-07
-6.2991e-07
7.83816e-07
-5.50179e-07
7.46561e-07
-4.57009e-07
7.31042e-07
-3.63234e-07
7.22241e-07
-2.85124e-07
7.1379e-07
-2.33782e-07
7.12536e-07
-1.97559e-07
7.17272e-07
-1.64619e-07
7.21266e-07
-1.35341e-07
7.23748e-07
-1.1064e-07
7.28926e-07
-8.63527e-08
7.38461e-07
-6.15386e-08
7.49592e-07
-3.89401e-08
7.58672e-07
-2.40164e-08
7.63851e-07
-1.6256e-08
7.65669e-07
-1.48529e-08
7.65924e-07
-1.50646e-08
7.66786e-07
-1.69011e-08
7.69725e-07
-1.75261e-08
7.75038e-07
-1.77827e-08
7.82404e-07
-1.66123e-08
7.8968e-07
-1.31599e-08
7.97217e-07
-1.1052e-08
-4.89287e-09
1.02377e-06
4.26152e-07
9.53449e-07
3.90488e-07
8.56584e-07
3.47614e-07
8.07657e-07
3.60412e-07
8.27696e-07
3.68615e-07
8.81131e-07
3.254e-07
9.4294e-07
2.3447e-07
9.91738e-07
9.63984e-08
1.02596e-06
-7.5193e-08
1.04657e-06
-2.46427e-07
1.04921e-06
-3.79203e-07
1.04665e-06
-4.92593e-07
1.05012e-06
-5.881e-07
1.04002e-06
-6.32377e-07
1.00325e-06
-6.37915e-07
9.42916e-07
-6.12381e-07
8.65355e-07
-5.52349e-07
7.95602e-07
-4.80426e-07
7.49622e-07
-4.11029e-07
7.31964e-07
-3.45576e-07
7.36747e-07
-2.89907e-07
7.48587e-07
-2.45623e-07
7.55844e-07
-2.04817e-07
7.56016e-07
-1.6479e-07
7.52958e-07
-1.32283e-07
7.51433e-07
-1.09115e-07
7.5344e-07
-8.836e-08
7.58406e-07
-6.65044e-08
7.65288e-07
-4.58227e-08
7.73951e-07
-3.26794e-08
7.84068e-07
-2.63731e-08
7.94141e-07
-2.49259e-08
8.01633e-07
-2.25559e-08
8.04936e-07
-2.02047e-08
8.04455e-07
-1.70452e-08
8.01746e-07
-1.50733e-08
7.99563e-07
-1.44289e-08
7.98326e-07
-1.1923e-08
7.99426e-07
-1.21521e-08
-6.89407e-09
1.09134e-06
3.8176e-07
1.09628e-06
3.85554e-07
1.096e-06
3.4789e-07
1.11494e-06
3.41476e-07
1.14717e-06
3.36377e-07
1.18084e-06
2.91737e-07
1.21254e-06
2.02773e-07
1.23767e-06
7.12629e-08
1.25499e-06
-9.25101e-08
1.26148e-06
-2.52921e-07
1.25564e-06
-3.73365e-07
1.22094e-06
-4.57888e-07
1.16955e-06
-5.36707e-07
1.11588e-06
-5.78711e-07
1.03896e-06
-5.60998e-07
9.52736e-07
-5.26154e-07
8.80255e-07
-4.79867e-07
8.2238e-07
-4.22552e-07
7.85508e-07
-3.74157e-07
7.69546e-07
-3.29613e-07
7.64267e-07
-2.84628e-07
7.66553e-07
-2.47909e-07
7.75707e-07
-2.1397e-07
7.82961e-07
-1.72045e-07
7.81081e-07
-1.30403e-07
7.75369e-07
-1.03402e-07
7.75711e-07
-8.87021e-08
7.83686e-07
-7.44792e-08
7.924e-07
-5.45366e-08
7.95871e-07
-3.61509e-08
7.948e-07
-2.53019e-08
7.94063e-07
-2.41893e-08
7.97194e-07
-2.56864e-08
8.03864e-07
-2.68745e-08
8.11193e-07
-2.4375e-08
8.16287e-07
-2.0167e-08
8.17581e-07
-1.57223e-08
8.16218e-07
-1.05602e-08
8.12513e-07
-8.44693e-09
-4.27509e-09
1.08635e-06
3.301e-07
1.13209e-06
3.39808e-07
1.15948e-06
3.20503e-07
1.20315e-06
2.97801e-07
1.25612e-06
2.83409e-07
1.306e-06
2.4186e-07
1.34428e-06
1.64494e-07
1.36602e-06
4.95149e-08
1.36366e-06
-9.01466e-08
1.33568e-06
-2.24939e-07
1.29868e-06
-3.36366e-07
1.25036e-06
-4.09563e-07
1.17079e-06
-4.57139e-07
1.08486e-06
-4.92783e-07
1.01114e-06
-4.87277e-07
9.40896e-07
-4.5591e-07
8.91918e-07
-4.30889e-07
8.66145e-07
-3.96778e-07
8.46732e-07
-3.54745e-07
8.33409e-07
-3.1629e-07
8.22489e-07