/*--------------------------------*- C++ -*----------------------------------*\
| =========                 |                                                 |
| \\      /  F ield         | OpenFOAM: The Open Source CFD Toolbox           |
|  \\    /   O peration     | Version:  2112                                  |
|   \\  /    A nd           | Website:  www.openfoam.com                      |
|    \\/     M anipulation  |                                                 |
\*---------------------------------------------------------------------------*/
FoamFile
{
    version     2.0;
    format      ascii;
    arch        "LSB;label=32;scalar=64";
    class       volVectorField;
    location    "0.37";
    object      U;
}
// * * * * * * * * * * * * * * * * * * * * * * * * * * * * * * * * * * * * * //

dimensions      [0 1 -1 0 0 0 0];

internalField   nonuniform List<vector> 
1880
(
(0.098929 0.000611501 0)
(0.0984823 0.00116179 0)
(0.0971703 0.00129387 0)
(0.0959751 0.00135071 0)
(0.0939629 0.0013233 0)
(0.0925732 0.00143188 0)
(0.0903959 0.00136713 0)
(0.089021 0.00147346 0)
(0.0868161 0.00135596 0)
(0.0854339 0.00152229 0)
(0.0830562 0.00129808 0)
(0.0816781 0.00151515 0)
(0.0792216 0.00124932 0)
(0.0777757 0.00164736 0)
(0.0751382 0.00120412 0)
(0.0736596 0.00167511 0)
(0.0708129 0.00120427 0)
(0.0692579 0.00179128 0)
(0.0659559 0.0014152 0)
(0.0645473 0.00182072 0)
(0.0602681 0.00161107 0)
(0.059328 0.00185172 0)
(0.0536817 0.00202954 0)
(0.0528523 0.00239446 0)
(0.0459349 0.00239381 0)
(0.0443694 0.00300345 0)
(0.0366306 0.00225755 0)
(0.0339272 0.00380927 0)
(0.0256514 0.00242735 0)
(0.0200077 0.00422982 0)
(0.0995741 0.000789418 0)
(0.100736 0.0013112 0)
(0.100201 0.00175423 0)
(0.101404 0.0016569 0)
(0.100704 0.00194759 0)
(0.101582 0.00178523 0)
(0.100935 0.00223287 0)
(0.101238 0.00188575 0)
(0.101133 0.0024386 0)
(0.100509 0.00197536 0)
(0.10127 0.00260348 0)
(0.0995444 0.00211579 0)
(0.100953 0.00271384 0)
(0.0986908 0.00231432 0)
(0.0999301 0.0028859 0)
(0.0979037 0.00267994 0)
(0.0984844 0.00293844 0)
(0.0963781 0.00335113 0)
(0.0969944 0.00288457 0)
(0.0943123 0.00408285 0)
(0.0947731 0.00354774 0)
(0.0919494 0.00433388 0)
(0.091311 0.00492526 0)
(0.0883507 0.00487749 0)
(0.0881036 0.00605148 0)
(0.0820271 0.00664549 0)
(0.0844229 0.00758557 0)
(0.0737304 0.00797051 0)
(0.076805 0.0106361 0)
(0.0626421 0.010447 0)
(0.0998036 0.000362703 0)
(0.100308 0.000545928 0)
(0.100464 0.00106586 0)
(0.100755 0.00108232 0)
(0.10126 0.00135627 0)
(0.101071 0.00130257 0)
(0.101835 0.00172859 0)
(0.101256 0.00135212 0)
(0.102183 0.00215926 0)
(0.101442 0.00145364 0)
(0.102378 0.00234513 0)
(0.101582 0.00194157 0)
(0.10247 0.00219951 0)
(0.101664 0.00256731 0)
(0.102217 0.00245327 0)
(0.101673 0.00260269 0)
(0.101999 0.00350935 0)
(0.101052 0.00246686 0)
(0.101969 0.00445289 0)
(0.0998352 0.00319078 0)
(0.101536 0.00492874 0)
(0.0988967 0.00435051 0)
(0.0998341 0.00648498 0)
(0.0979407 0.00481817 0)
(0.0980222 0.00907698 0)
(0.0950885 0.0066092 0)
(0.0964618 0.0104772 0)
(0.0911741 0.0106372 0)
(0.0928245 0.0139675 0)
(0.0865504 0.0131658 0)
(0.0997887 0.000441386 0)
(0.100304 0.000344527 0)
(0.100153 0.00122809 0)
(0.100534 0.000908811 0)
(0.100768 0.00159715 0)
(0.100738 0.00122412 0)
(0.101394 0.0018514 0)
(0.100869 0.00145735 0)
(0.101805 0.00212967 0)
(0.101141 0.00167539 0)
(0.101955 0.00235242 0)
(0.101471 0.00206021 0)
(0.102095 0.00247809 0)
(0.101618 0.00252907 0)
(0.10222 0.00282116 0)
(0.101539 0.00277606 0)
(0.102389 0.00365906 0)
(0.101341 0.00301828 0)
(0.102173 0.00452906 0)
(0.101155 0.00388196 0)
(0.101855 0.00518419 0)
(0.100534 0.00519525 0)
(0.101459 0.00669458 0)
(0.09983 0.00627269 0)
(0.100312 0.0089033 0)
(0.0993182 0.00877033 0)
(0.0989535 0.0108729 0)
(0.0974227 0.0122484 0)
(0.0984619 0.0151052 0)
(0.0951014 0.0167059 0)
(0.0998829 0.000277518 0)
(0.100183 0.000248369 0)
(0.100132 0.000807597 0)
(0.100369 0.000719177 0)
(0.100537 0.00117659 0)
(0.100661 0.000969681 0)
(0.100989 0.00154904 0)
(0.10092 0.00107441 0)
(0.101322 0.00197488 0)
(0.101228 0.00122786 0)
(0.101532 0.00224623 0)
(0.101482 0.00166281 0)
(0.101774 0.00241541 0)
(0.101699 0.00211444 0)
(0.101835 0.00299407 0)
(0.101874 0.00216194 0)
(0.101896 0.0040656 0)
(0.101937 0.0024572 0)
(0.101737 0.00488378 0)
(0.101964 0.00359913 0)
(0.101523 0.00550684 0)
(0.101724 0.00493607 0)
(0.10126 0.00719639 0)
(0.101386 0.00609452 0)
(0.100827 0.00955376 0)
(0.10105 0.00860784 0)
(0.100289 0.011702 0)
(0.100434 0.0121242 0)
(0.0998506 0.0157819 0)
(0.100241 0.0158969 0)
(0.0999019 0.000260256 0)
(0.100147 0.000184383 0)
(0.10014 0.000729088 0)
(0.100244 0.000638596 0)
(0.100499 0.00106408 0)
(0.100462 0.000978957 0)
(0.100923 0.00135017 0)
(0.100736 0.00120262 0)
(0.101183 0.0017096 0)
(0.101176 0.00137948 0)
(0.101284 0.00206819 0)
(0.101537 0.00169657 0)
(0.101546 0.00238934 0)
(0.101734 0.00213643 0)
(0.101768 0.0029045 0)
(0.101891 0.00240379 0)
(0.101917 0.00382317 0)
(0.102133 0.00282167 0)
(0.101753 0.00472312 0)
(0.102321 0.0039307 0)
(0.101822 0.00543184 0)
(0.102128 0.00538811 0)
(0.101862 0.00698227 0)
(0.10208 0.00680146 0)
(0.10166 0.00918533 0)
(0.102169 0.00931615 0)
(0.101676 0.0115045 0)
(0.101889 0.012557 0)
(0.1022 0.0152025 0)
(0.102186 0.0167819 0)
(0.0999336 0.00015859 0)
(0.100115 0.000207282 0)
(0.100124 0.000519532 0)
(0.100212 0.000557161 0)
(0.100389 0.000846885 0)
(0.100444 0.000796034 0)
(0.100761 0.00119139 0)
(0.100717 0.000940041 0)
(0.101058 0.0015889 0)
(0.101132 0.00111216 0)
(0.101231 0.00193222 0)
(0.101504 0.00145698 0)
(0.101505 0.00227293 0)
(0.101815 0.00188209 0)
(0.101722 0.00285305 0)
(0.102058 0.002182 0)
(0.102004 0.00372204 0)
(0.102318 0.00273201 0)
(0.102017 0.0045766 0)
(0.102644 0.00385947 0)
(0.102194 0.00544534 0)
(0.1027 0.00519013 0)
(0.102424 0.00703259 0)
(0.102837 0.00668184 0)
(0.1026 0.00911866 0)
(0.103246 0.00913267 0)
(0.102913 0.011492 0)
(0.103624 0.0120635 0)
(0.10367 0.0151182 0)
(0.104514 0.0156587 0)
(0.0999601 0.000110474 0)
(0.100066 0.000197544 0)
(0.100156 0.000381679 0)
(0.100138 0.000509733 0)
(0.100407 0.000639967 0)
(0.100362 0.000763535 0)
(0.100749 0.000928137 0)
(0.100675 0.000939854 0)
(0.10101 0.00130526 0)
(0.101156 0.00110024 0)
(0.101196 0.00170094 0)
(0.101536 0.00138133 0)
(0.101571 0.00209759 0)
(0.10183 0.0018206 0)
(0.101897 0.00262241 0)
(0.102135 0.00224664 0)
(0.102234 0.00339675 0)
(0.102532 0.00285872 0)
(0.102366 0.00426778 0)
(0.102941 0.0039475 0)
(0.102753 0.00519099 0)
(0.103165 0.00524943 0)
(0.103153 0.00672232 0)
(0.103565 0.00677503 0)
(0.103606 0.00868293 0)
(0.10419 0.00911062 0)
(0.10433 0.0109908 0)
(0.104906 0.0118694 0)
(0.105426 0.0141355 0)
(0.106233 0.0153388 0)
(0.0999694 5.42672e-05 0)
(0.100056 0.000190238 0)
(0.100146 0.000267098 0)
(0.10014 0.000419812 0)
(0.100375 0.000507568 0)
(0.10037 0.000601765 0)
(0.100715 0.000792959 0)
(0.100682 0.000749906 0)
(0.10101 0.00113677 0)
(0.101169 0.000939254 0)
(0.101243 0.00148017 0)
(0.101582 0.00124164 0)
(0.101655 0.00186666 0)
(0.101945 0.00166807 0)
(0.102041 0.00239848 0)
(0.102299 0.00211641 0)
(0.102508 0.0031239 0)
(0.102756 0.00276934 0)
(0.102768 0.00397439 0)
(0.103303 0.00380288 0)
(0.103279 0.00495493 0)
(0.10372 0.00504195 0)
(0.103859 0.00640686 0)
(0.104315 0.006552 0)
(0.104555 0.00825262 0)
(0.105206 0.00870735 0)
(0.105521 0.0104997 0)
(0.106284 0.0111908 0)
(0.106899 0.0134135 0)
(0.107897 0.0142557 0)
(0.0999844 1.28889e-05 0)
(0.100033 0.000174655 0)
(0.100157 0.000150325 0)
(0.100128 0.000350686 0)
(0.100381 0.000331303 0)
(0.100381 0.000501631 0)
(0.100711 0.000573347 0)
(0.100724 0.000636643 0)
(0.101023 0.000889927 0)
(0.101228 0.000817097 0)
(0.101322 0.00122471 0)
(0.101636 0.00110559 0)
(0.101821 0.00159291 0)
(0.102036 0.00154974 0)
(0.102259 0.00207384 0)
(0.102492 0.00204148 0)
(0.102783 0.00275004 0)
(0.103047 0.00268667 0)
(0.103177 0.0035969 0)
(0.103678 0.00365562 0)
(0.103851 0.00458409 0)
(0.104258 0.00484018 0)
(0.104571 0.00593793 0)
(0.105052 0.0063076 0)
(0.105488 0.00764814 0)
(0.106138 0.00829063 0)
(0.106694 0.00976072 0)
(0.107489 0.0105861 0)
(0.108292 0.0123107 0)
(0.109346 0.013345 0)
(0.0999887 -1.75034e-05 0)
(0.100029 0.000134644 0)
(0.100153 6.224e-05 0)
(0.100145 0.000237326 0)
(0.100381 0.000201633 0)
(0.100421 0.000335454 0)
(0.100725 0.000403524 0)
(0.100784 0.000455665 0)
(0.101074 0.000666296 0)
(0.101307 0.000649968 0)
(0.101424 0.000953735 0)
(0.101741 0.00093208 0)
(0.101978 0.00130395 0)
(0.102196 0.00134903 0)
(0.102477 0.00177312 0)
(0.102721 0.00182998 0)
(0.103088 0.00240442 0)
(0.103362 0.00246662 0)
(0.103583 0.00320732 0)
(0.104104 0.00337834 0)
(0.104391 0.00417084 0)
(0.104822 0.00449227 0)
(0.105258 0.00542971 0)
(0.105782 0.00586899 0)
(0.106349 0.00701388 0)
(0.107062 0.00766445 0)
(0.107734 0.00897187 0)
(0.108623 0.00972996 0)
(0.109537 0.0112502 0)
(0.110644 0.0121641 0)
(0.0999954 -4.48318e-05 0)
(0.100023 8.99847e-05 0)
(0.100157 -3.45268e-05 0)
(0.100166 0.000129066 0)
(0.100396 4.9811e-05 0)
(0.100477 0.000187674 0)
(0.100757 0.000207705 0)
(0.100866 0.000291727 0)
(0.101147 0.000433879 0)
(0.101404 0.000481643 0)
(0.101559 0.00068915 0)
(0.101858 0.000752157 0)
(0.102172 0.0010055 0)
(0.102376 0.00115539 0)
(0.102707 0.00144216 0)
(0.102993 0.0016175 0)
(0.10339 0.00204134 0)
(0.103704 0.00221382 0)
(0.104001 0.00279684 0)
(0.104526 0.00307008 0)
(0.104938 0.00370541 0)
(0.105381 0.00411625 0)
(0.105915 0.00485946 0)
(0.106493 0.00538628 0)
(0.107164 0.00630851 0)
(0.107921 0.00699648 0)
(0.108705 0.00808147 0)
(0.109644 0.00887238 0)
(0.110661 0.0100777 0)
(0.111802 0.0109957 0)
(0.099998 -6.50398e-05 0)
(0.100027 2.27585e-05 0)
(0.100163 -0.000130627 0)
(0.100204 -1.77648e-05 0)
(0.100428 -0.00011225 0)
(0.100554 -1.25394e-05 0)
(0.100822 -1.42573e-05 0)
(0.100975 6.30187e-05 0)
(0.101256 0.000156521 0)
(0.101533 0.000235484 0)
(0.101715 0.00037001 0)
(0.102019 0.000474938 0)
(0.102374 0.000660504 0)
(0.102595 0.000837358 0)
(0.102957 0.00107037 0)
(0.103286 0.00127279 0)
(0.103712 0.00162025 0)
(0.104067 0.00183345 0)
(0.104414 0.00230978 0)
(0.104971 0.00262934 0)
(0.10547 0.00316403 0)
(0.105939 0.0035906 0)
(0.10655 0.00421575 0)
(0.107182 0.00474081 0)
(0.107921 0.00552254 0)
(0.108736 0.00617298 0)
(0.109591 0.00711096 0)
(0.110577 0.00784796 0)
(0.111673 0.00886637 0)
(0.112837 0.00969651 0)
(0.100001 -8.65378e-05 0)
(0.10003 -4.83716e-05 0)
(0.100173 -0.000230423 0)
(0.100245 -0.000157861 0)
(0.10047 -0.000265342 0)
(0.100641 -0.000185146 0)
(0.100903 -0.000203992 0)
(0.101097 -0.000122552 0)
(0.101388 -6.54542e-05 0)
(0.101678 3.96426e-05 0)
(0.101898 0.000119193 0)
(0.102207 0.000257004 0)
(0.102599 0.000381301 0)
(0.102847 0.000583191 0)
(0.103226 0.000760312 0)
(0.10361 0.000983188 0)
(0.104053 0.00126174 0)
(0.104444 0.00149111 0)
(0.104851 0.00187222 0)
(0.105426 0.00222229 0)
(0.105999 0.00265516 0)
(0.106501 0.00309113 0)
(0.107161 0.00360314 0)
(0.107853 0.0041124 0)
(0.108649 0.00476066 0)
(0.109502 0.00537192 0)
(0.110423 0.00615034 0)
(0.111435 0.00685504 0)
(0.112591 0.00768347 0)
(0.113772 0.00844802 0)
(0.100002 -0.000114378 0)
(0.100046 -0.000159442 0)
(0.100204 -0.000381247 0)
(0.100322 -0.000374939 0)
(0.10056 -0.00049882 0)
(0.100778 -0.000454821 0)
(0.101046 -0.000492223 0)
(0.101273 -0.000424987 0)
(0.101575 -0.000400216 0)
(0.101876 -0.000299031 0)
(0.102122 -0.000258293 0)
(0.102445 -0.000128257 0)
(0.102858 -3.77126e-05 0)
(0.103134 0.000145748 0)
(0.10353 0.000296765 0)
(0.103957 0.000507997 0)
(0.104417 0.000735931 0)
(0.104838 0.000960017 0)
(0.105295 0.00127387 0)
(0.105893 0.00162139 0)
(0.106523 0.00198876 0)
(0.107059 0.00239166 0)
(0.107761 0.00282882 0)
(0.108502 0.00329195 0)
(0.10934 0.00384387 0)
(0.110219 0.00439414 0)
(0.111194 0.00505723 0)
(0.112226 0.00569616 0)
(0.113434 0.00639476 0)
(0.114629 0.00706066 0)
(0.100003 -0.00013717 0)
(0.100061 -0.000247449 0)
(0.100244 -0.000486374 0)
(0.100415 -0.00051287 0)
(0.100681 -0.000632501 0)
(0.100944 -0.000605322 0)
(0.101227 -0.000650765 0)
(0.101482 -0.000597189 0)
(0.101801 -0.000594994 0)
(0.102107 -0.00050509 0)
(0.10239 -0.000491177 0)
(0.102728 -0.000366704 0)
(0.103164 -0.000301204 0)
(0.103471 -0.000134529 0)
(0.103888 -3.93006e-06 0)
(0.104349 0.000193892 0)
(0.104838 0.000378984 0)
(0.10528 0.000586623 0)
(0.105797 0.000837921 0)
(0.106403 0.00117009 0)
(0.107073 0.00147253 0)
(0.107642 0.00183494 0)
(0.108389 0.0022075 0)
(0.109166 0.00261582 0)
(0.110057 0.00306701 0)
(0.110939 0.00354797 0)
(0.111967 0.00408806 0)
(0.112993 0.0046626 0)
(0.114241 0.00524629 0)
(0.11542 0.00584396 0)
(0.100004 -0.000222091 0)
(0.100106 -0.000504415 0)
(0.100342 -0.000816518 0)
(0.100581 -0.000899741 0)
(0.10088 -0.00102164 0)
(0.101179 -0.00101552 0)
(0.101481 -0.00107095 0)
(0.101749 -0.00103707 0)
(0.10209 -0.00104823 0)
(0.102393 -0.000977219 0)
(0.102725 -0.000977607 0)
(0.103071 -0.000867171 0)
(0.103529 -0.000811283 0)
(0.103845 -0.000671352 0)
(0.104301 -0.000559411 0)
(0.104767 -0.000397111 0)
(0.105293 -0.000260073 0)
(0.105724 -7.55143e-05 0)
(0.10631 0.000135101 0)
(0.106899 0.00042694 0)
(0.107624 0.000667811 0)
(0.108202 0.000968379 0)
(0.109018 0.00129 0)
(0.10978 0.00164684 0)
(0.110733 0.00203094 0)
(0.11158 0.00245085 0)
(0.112687 0.00289996 0)
(0.113695 0.0033866 0)
(0.115028 0.00386326 0)
(0.116194 0.00435435 0)
(0.099995 -0.000241979 0)
(0.10022 -0.000579746 0)
(0.100573 -0.00086316 0)
(0.100943 -0.000948901 0)
(0.101284 -0.00105379 0)
(0.101626 -0.00107379 0)
(0.101925 -0.00114167 0)
(0.102202 -0.0011366 0)
(0.102538 -0.00115729 0)
(0.102833 -0.0011267 0)
(0.10318 -0.00114139 0)
(0.103513 -0.00104813 0)
(0.103954 -0.00101409 0)
(0.104245 -0.00092122 0)
(0.1047 -0.000834993 0)
(0.105117 -0.000706302 0)
(0.105652 -0.000601469 0)
(0.106042 -0.000445863 0)
(0.10665 -0.000273793 0)
(0.107169 -2.61354e-05 0)
(0.1079 0.000164025 0)
(0.10846 0.000422128 0)
(0.109314 0.000704028 0)
(0.110045 0.000994181 0)
(0.11103 0.00128752 0)
(0.111847 0.00162622 0)
(0.112979 0.00198272 0)
(0.113975 0.00240329 0)
(0.11533 0.00281543 0)
(0.116502 0.00325922 0)
(0.099974 -0.000695306 0)
(0.100349 -0.00135242 0)
(0.100705 -0.00158097 0)
(0.10111 -0.00161208 0)
(0.101304 -0.00166751 0)
(0.101575 -0.00171449 0)
(0.10165 -0.00177574 0)
(0.101808 -0.00177551 0)
(0.101872 -0.00176249 0)
(0.10203 -0.00174236 0)
(0.102064 -0.00173973 0)
(0.102208 -0.00165239 0)
(0.102264 -0.00160717 0)
(0.10238 -0.00153365 0)
(0.10248 -0.00146388 0)
(0.102689 -0.00137851 0)
(0.102789 -0.00129399 0)
(0.102975 -0.00114235 0)
(0.103209 -0.000986714 0)
(0.103588 -0.000813005 0)
(0.103941 -0.000702073 0)
(0.104376 -0.000520178 0)
(0.104827 -0.000305321 0)
(0.105438 -5.7697e-05 0)
(0.1061 0.000171493 0)
(0.106962 0.000439212 0)
(0.107893 0.000670048 0)
(0.109032 0.000950368 0)
(0.110206 0.00120749 0)
(0.111567 0.00151893 0)
(0.0990214 -0.000604275 0)
(0.0984544 -0.00114388 0)
(0.0974228 -0.0012785 0)
(0.0960136 -0.00127949 0)
(0.0943672 -0.00129717 0)
(0.0927951 -0.00132499 0)
(0.0911311 -0.00133489 0)
(0.0895907 -0.00131198 0)
(0.0880155 -0.0012927 0)
(0.0865366 -0.0012784 0)
(0.0849426 -0.00121621 0)
(0.0835694 -0.00113924 0)
(0.0821073 -0.00112013 0)
(0.080801 -0.00109788 0)
(0.0794286 -0.00103119 0)
(0.078301 -0.000935197 0)
(0.0770705 -0.000866631 0)
(0.0761078 -0.000813026 0)
(0.0750862 -0.000770183 0)
(0.0743623 -0.000705264 0)
(0.073516 -0.000595966 0)
(0.0730524 -0.000439446 0)
(0.0725182 -0.000318111 0)
(0.0724403 -0.000245492 0)
(0.072192 -0.000205604 0)
(0.0724282 -0.000136542 0)
(0.0724607 -1.0401e-05 0)
(0.0731107 0.000178799 0)
(0.0735458 0.00038371 0)
(0.0747225 0.000570772 0)
(0.0128189 0.00329815 0)
(0.0419284 0.0137297 0)
(0.0340535 0.0134691 0)
(0.0639624 0.0263934 8.72332e-22)
(0.0485896 0.0212094 6.86592e-22)
(0.084132 0.0349071 0)
(0.0609698 0.0284682 2.91365e-22)
(0.101075 0.0412776 2.74844e-23)
(0.0768956 0.0360068 6.15412e-22)
(0.125474 0.0448561 0)
(0.0665687 0.0128777 0)
(0.0752577 0.0221321 0)
(0.0797613 0.0220679 0)
(0.0910831 0.0340609 0)
(0.0928157 0.0326038 0)
(0.102952 0.0433565 1.78769e-22)
(0.104463 0.0411283 6.19599e-23)
(0.11819 0.0508676 -8.01814e-23)
(0.118338 0.0438474 -4.83203e-22)
(0.13747 0.0548082 -4.6756e-22)
(0.087139 0.0216634 0)
(0.0915904 0.0236113 0)
(0.0948496 0.0280685 0)
(0.0981446 0.0293263 0)
(0.103722 0.0388823 0)
(0.107162 0.0350035 -1.78768e-22)
(0.113579 0.0410679 -6.1959e-23)
(0.123413 0.0428777 8.01792e-23)
(0.129308 0.0442176 2.56097e-22)
(0.134303 0.0358769 4.67561e-22)
(0.0952545 0.0191517 -3.81956e-22)
(0.0978968 0.0247668 0)
(0.101342 0.0275601 -3.04966e-22)
(0.103546 0.029193 -2.55792e-22)
(0.108412 0.0348226 -1.81225e-22)
(0.113527 0.0361199 0)
(0.117183 0.0354836 0)
(0.12469 0.0382867 1.2584e-22)
(0.13287 0.0439548 2.7089e-22)
(0.135602 0.0388226 4.20065e-22)
(0.0991576 0.0214669 3.81958e-22)
(0.101361 0.0220907 0)
(0.104599 0.0271091 3.04966e-22)
(0.10759 0.0265937 2.55793e-22)
(0.110542 0.0334142 1.81225e-22)
(0.116846 0.0324473 0)
(0.119918 0.0341276 0)
(0.125043 0.0333806 -1.2584e-22)
(0.132232 0.0374763 -2.70896e-22)
(0.138238 0.0319605 -4.20066e-22)
(0.102345 0.019581 0)
(0.104455 0.0218385 -2.75624e-22)
(0.107109 0.0253535 0)
(0.109971 0.0255123 -1.81387e-22)
(0.112999 0.0293586 0)
(0.11868 0.0299041 0)
(0.122246 0.030939 0)
(0.12692 0.0301321 -1.46033e-22)
(0.133385 0.0341021 0)
(0.138689 0.0305604 0)
(0.104596 0.0194098 2.71607e-22)
(0.106624 0.0199434 5.19601e-22)
(0.109227 0.0236617 2.02442e-22)
(0.112655 0.0234559 1.81387e-22)
(0.115242 0.0271462 0)
(0.119983 0.0269081 -2.37689e-23)
(0.123781 0.0283356 0)
(0.127813 0.027104 1.46034e-22)
(0.133191 0.0293663 0)
(0.138882 0.025721 0)
(0.106767 0.0178614 -2.71607e-22)
(0.108801 0.0188213 -2.43976e-22)
(0.111237 0.021612 -2.02442e-22)
(0.114319 0.0217447 0)
(0.117043 0.0242663 0)
(0.121222 0.0243535 2.37689e-23)
(0.125127 0.0253335 0)
(0.128915 0.0241451 0)
(0.13356 0.0259781 0)
(0.138573 0.0233807 0)
(0.10865 0.0167389 0)
(0.110566 0.017258 -1.92181e-22)
(0.112917 0.0197005 0)
(0.115917 0.0197753 -1.08655e-22)
(0.118629 0.0218482 0)
(0.12224 0.02163 0)
(0.125966 0.0227072 7.54712e-23)
(0.129547 0.0217795 1.56087e-22)
(0.133517 0.0224915 0)
(0.138096 0.0196746 3.31834e-22)
(0.11029 0.0152396 0)
(0.112148 0.0158151 1.92181e-22)
(0.114428 0.0177166 0)
(0.117174 0.017861 1.08655e-22)
(0.119881 0.0194578 0)
(0.12314 0.0193463 0)
(0.126529 0.0200628 -7.54713e-23)
(0.130035 0.0189787 -1.56087e-22)
(0.133727 0.0196121 0)
(0.137461 0.0175731 -3.31835e-22)
(0.111744 0.0137827 8.94429e-23)
(0.113514 0.0142487 0)
(0.115703 0.0158285 0)
(0.118287 0.0159407 3.90461e-23)
(0.120881 0.0171607 0)
(0.123861 0.0169428 0)
(0.127077 0.0176873 0)
(0.130297 0.0167609 -7.67402e-23)
(0.133452 0.0168592 0)
(0.136848 0.0148467 0)
(0.112992 0.0122945 -7.89275e-24)
(0.11469 0.0127279 0)
(0.11679 0.0139643 5.30088e-23)
(0.119209 0.014092 -5.73859e-24)
(0.121703 0.0150721 0)
(0.12445 0.0148607 0)
(0.127377 0.0153295 -4.31494e-23)
(0.130419 0.0144495 7.67403e-23)
(0.133401 0.0145092 -1.08697e-22)
(0.136339 0.0128731 -1.43598e-22)
(0.114102 0.0107612 -6.69478e-24)
(0.11575 0.0111357 0)
(0.117746 0.0121507 -5.65476e-24)
(0.120004 0.0122395 -4.66186e-24)
(0.122371 0.0129719 7.58119e-24)
(0.124951 0.0127598 1.6438e-23)
(0.127673 0.0131611 -4.01706e-25)
(0.130429 0.0123817 -7.33487e-23)
(0.133122 0.0122236 4.14086e-24)
(0.135816 0.0107749 6.47104e-24)
(0.115062 0.00931909 -7.48557e-23)
(0.116648 0.00965662 0)
(0.118549 0.0104652 -4.73541e-23)
(0.120685 0.0105529 -2.86458e-23)
(0.12293 0.0111274 -7.5812e-24)
(0.125325 0.0109161 -3.44681e-23)
(0.12785 0.011148 4.35513e-23)
(0.130426 0.0104543 7.33488e-23)
(0.132933 0.0102618 1.04556e-22)
(0.135362 0.0090267 1.37127e-22)
(0.115966 0.00777019 0)
(0.117513 0.00805908 0)
(0.119321 0.00871076 0)
(0.12131 0.00878022 0)
(0.123429 0.00920628 0)
(0.125669 0.00901652 1.80301e-23)
(0.128008 0.0091679 0)
(0.130361 0.00856919 0)
(0.132678 0.00831812 0)
(0.134931 0.00726836 0)
(0.116775 0.00643946 0)
(0.118252 0.00671393 0)
(0.12 0.00724305 0)
(0.121863 0.00731356 0)
(0.123887 0.00762695 0)
(0.12596 0.0074411 9.75041e-24)
(0.128157 0.00748192 0)
(0.130332 0.00694703 0)
(0.132505 0.00666617 0)
(0.134573 0.00576871 0)
(0.117642 0.00482933 0)
(0.119009 0.00507889 0)
(0.120722 0.00550273 1.6546e-23)
(0.122363 0.00558573 0)
(0.124297 0.00581989 5.77036e-26)
(0.126123 0.00567366 -9.75043e-24)
(0.128204 0.00566938 0)
(0.130121 0.00522964 -3.25429e-23)
(0.13219 0.00495416 0)
(0.134033 0.00422165 0)
(0.118007 0.0036731 0)
(0.119071 0.0039375 0)
(0.120823 0.00427797 -1.6546e-23)
(0.122115 0.00436383 0)
(0.124081 0.0044974 -5.77038e-26)
(0.125517 0.00433886 0)
(0.127612 0.00423514 0)
(0.129101 0.0038224 3.25431e-23)
(0.131173 0.00350423 0)
(0.132538 0.00287874 0)
(0.112964 0.00180436 -6.65957e-24)
(0.11347 0.00204691 -5.31618e-24)
(0.115189 0.00231165 -3.76695e-24)
(0.115927 0.00244289 0)
(0.117969 0.0025467 4.43814e-26)
(0.118842 0.00247785 0)
(0.121063 0.00238071 4.87166e-24)
(0.121861 0.00211077 0)
(0.124018 0.0018509 1.06678e-23)
(0.124459 0.0014314 1.38639e-23)
(0.0756292 0.000707381 6.65881e-24)
(0.0761436 0.000771461 5.31552e-24)
(0.0775628 0.000791216 3.76646e-24)
(0.0783641 0.00075708 0)
(0.0800915 0.000681138 -4.4375e-26)
(0.0808884 0.000565171 0)
(0.0826238 0.000419627 -4.87088e-24)
(0.083058 0.000254355 0)
(0.0844937 6.70269e-05 -1.06659e-23)
(0.0841936 -0.000120611 -1.38613e-23)
(0.00897114 -0.00168871 0)
(0.0164604 0.00640287 0)
(0.0082294 0.00759798 0)
(0.00797282 0.00423294 0)
(-0.0235614 0.0162083 0)
(-0.0689215 0.0163159 0)
(-0.0972295 0.0116488 0)
(-0.120671 0.00845458 0)
(-0.132984 0.00497649 0)
(-0.136385 0.00135394 0)
(-0.133059 -0.00103319 0)
(-0.12187 -0.00380878 0)
(-0.109018 -0.00440985 0)
(-0.0889967 -0.00590781 0)
(-0.0723002 -0.00631836 0)
(-0.0481709 -0.00696733 0)
(-0.0275435 -0.00672224 0)
(-0.00560395 -0.00595076 0)
(0.0128454 -0.00485767 0)
(0.0282212 -0.00359281 0)
(0.0400611 -0.00241945 0)
(0.0489927 -0.00147117 0)
(0.0555481 -0.00071192 0)
(0.0602262 -7.24117e-05 0)
(0.0632074 0.00049264 0)
(0.0646528 0.000988531 0)
(0.0646834 0.00140095 0)
(0.0635549 0.0016726 0)
(0.0614875 0.00176075 0)
(0.0588998 0.00167363 0)
(0.0560999 0.00146466 0)
(0.0534574 0.00119165 0)
(0.0510899 0.000909007 0)
(0.0491468 0.000654709 0)
(0.0475808 0.000448176 0)
(0.0463634 0.000290013 0)
(0.0454725 0.000179945 0)
(0.0447036 0.000102335 0)
(0.0442897 6.10693e-05 0)
(0.0436577 3.82383e-05 0)
(0.00735525 -0.0177564 0)
(0.0148629 -0.00512414 0)
(0.0160568 -0.00176975 0)
(-0.0226838 0.0197857 0)
(-0.0614918 0.0367927 0)
(-0.0931562 0.0338618 0)
(-0.110371 0.0242747 0)
(-0.1279 0.0173067 0)
(-0.131952 0.00733416 0)
(-0.132766 -0.00102337 0)
(-0.124393 -0.00928173 0)
(-0.111425 -0.0146282 0)
(-0.097609 -0.019189 0)
(-0.0767222 -0.0213124 0)
(-0.0596652 -0.0232422 0)
(-0.0361405 -0.0252247 0)
(-0.0154228 -0.0243911 0)
(0.0067504 -0.0226425 0)
(0.0258889 -0.0193429 0)
(0.0421365 -0.0156362 0)
(0.0549025 -0.0121673 0)
(0.0650097 -0.00931938 0)
(0.0729752 -0.00704951 0)
(0.0794265 -0.00517741 0)
(0.0845295 -0.00352095 0)
(0.0886432 -0.00201106 0)
(0.0917704 -0.000603874 0)
(0.0940065 0.000610514 0)
(0.0951775 0.00154294 0)
(0.0955084 0.00212445 0)
(0.095164 0.00238315 0)
(0.0945039 0.0023288 0)
(0.0937324 0.0021252 0)
(0.0929817 0.00179489 0)
(0.0924 0.00150059 0)
(0.0918223 0.00117541 0)
(0.0915108 0.000971116 0)
(0.0910256 0.000734123 0)
(0.0909009 0.000641401 0)
(0.0903962 0.000478934 0)
(0.00322782 -0.0179367 0)
(-0.0128439 0.000900096 0)
(-0.0264546 0.033534 0)
(-0.0430629 0.0549656 0)
(-0.065674 0.0629358 0)
(-0.0782608 0.0505891 0)
(-0.0906613 0.0369546 0)
(-0.100684 0.0249332 0)
(-0.102286 0.0100602 0)
(-0.0988557 -0.00395928 0)
(-0.0898035 -0.0162373 0)
(-0.0757705 -0.024263 0)
(-0.0619472 -0.029396 0)
(-0.0458801 -0.0338839 0)
(-0.0297347 -0.036298 0)
(-0.012538 -0.0392324 0)
(0.00517159 -0.038866 0)
(0.0230852 -0.0363946 0)
(0.0392723 -0.0310549 0)
(0.0533085 -0.024807 0)
(0.0641152 -0.0190965 0)
(0.0723213 -0.0146206 0)
(0.0787939 -0.0111803 0)
(0.0842258 -0.0084649 0)
(0.0885272 -0.00624317 0)
(0.0921181 -0.00434485 0)
(0.095263 -0.00254652 0)
(0.098304 -0.00083944 0)
(0.10091 0.000686858 0)
(0.102904 0.00175727 0)
(0.104008 0.00233042 0)
(0.10447 0.002371 0)
(0.104481 0.00214679 0)
(0.104342 0.00172851 0)
(0.104195 0.00136915 0)
(0.10411 0.00100222 0)
(0.104116 0.000787766 0)
(0.104173 0.000587461 0)
(0.104236 0.000511575 0)
(0.104339 0.000432405 0)
(0.00554766 -0.00931748 0)
(-0.0127938 0.01863 0)
(-0.0166966 0.0244737 0)
(-0.0342758 0.0533047 0)
(-0.0492395 0.0618689 0)
(-0.0548418 0.0514551 0)
(-0.062111 0.0394035 0)
(-0.0663053 0.0259064 0)
(-0.0650016 0.00779161 0)
(-0.0589188 -0.0097638 0)
(-0.0490087 -0.0254411 0)
(-0.0359583 -0.0351417 0)
(-0.0225504 -0.0405139 0)
(-0.00861683 -0.044291 0)
(0.00395632 -0.0469914 0)
(0.0179864 -0.050192 0)
(0.0314289 -0.0503453 0)
(0.0443579 -0.0473012 0)
(0.0552459 -0.0412794 0)
(0.0652409 -0.0334076 0)
(0.0737638 -0.0255607 0)
(0.079838 -0.0195672 0)
(0.0842111 -0.0153158 0)
(0.0883404 -0.0118767 0)
(0.091953 -0.0089378 0)
(0.0946061 -0.00669491 0)
(0.0963308 -0.00497185 0)
(0.0980962 -0.00341828 0)
(0.100187 -0.00172495 0)
(0.102609 -0.000129507 0)
(0.104738 0.00117018 0)
(0.106342 0.00186749 0)
(0.107187 0.00209599 0)
(0.107542 0.00188532 0)
(0.107498 0.00156015 0)
(0.1074 0.00114774 0)
(0.107227 0.000845879 0)
(0.107226 0.000601071 0)
(0.107164 0.000468957 0)
(0.107305 0.000386645 0)
(0.0127272 -0.0158495 0)
(-0.0129228 0.01452 0)
(-0.020411 0.0428673 0)
(-0.0186579 0.0693986 0)
(-0.0204063 0.0765036 0)
(-0.018058 0.0635561 0)
(-0.023445 0.0474419 0)
(-0.022654 0.0291029 0)
(-0.0195585 0.00715889 0)
(-0.0128828 -0.0150088 0)
(-0.0052498 -0.032797 0)
(0.0038422 -0.043964 0)
(0.0136386 -0.0494961 0)
(0.0230981 -0.0526269 0)
(0.0337582 -0.0548798 0)
(0.0449018 -0.0581117 0)
(0.0552339 -0.0585311 0)
(0.0653912 -0.0537405 0)
(0.0724031 -0.0462011 0)
(0.076406 -0.0381817 0)
(0.0809898 -0.0294983 0)
(0.0853982 -0.0219971 0)
(0.0878711 -0.0172591 0)
(0.0898843 -0.0140662 0)
(0.0926108 -0.0107994 0)
(0.0954855 -0.00756889 0)
(0.0971027 -0.00513082 0)
(0.0976701 -0.00367444 0)
(0.098004 -0.00258355 0)
(0.099059 -0.00150089 0)
(0.10076 -0.000315244 0)
(0.102874 0.000648186 0)
(0.104783 0.00133797 0)
(0.106308 0.00156921 0)
(0.107229 0.00153247 0)
(0.107757 0.00125691 0)
(0.107919 0.000956482 0)
(0.108008 0.000666785 0)
(0.107961 0.000477914 0)
(0.108001 0.000340268 0)
(0.000864624 -0.0061777 0)
(-0.0169755 0.0474103 0)
(0.00271964 0.0333472 0)
(0.00707152 0.0586974 0)
(0.0105764 0.0638485 0)
(0.0165063 0.0525123 0)
(0.0177031 0.0391223 0)
(0.0235734 0.0217773 0)
(0.0287162 0.00126527 0)
(0.0351754 -0.0201695 0)
(0.0405476 -0.0376997 0)
(0.0449189 -0.0483656 0)
(0.0491469 -0.0544057 0)
(0.0536881 -0.058153 0)
(0.0604165 -0.062169 0)
(0.0688954 -0.0649972 0)
(0.0749344 -0.0653137 0)
(0.0798478 -0.0597626 0)
(0.0854295 -0.0489654 0)
(0.0867032 -0.0393874 0)
(0.0862006 -0.0318098 0)
(0.0881985 -0.0242429 0)
(0.0905896 -0.0182859 0)
(0.0916048 -0.0150709 0)
(0.0924218 -0.0127878 0)
(0.0944429 -0.00979144 0)
(0.0966638 -0.00642962 0)
(0.0978599 -0.00394454 0)
(0.0976875 -0.00260893 0)
(0.0972411 -0.00202401 0)
(0.0973174 -0.00150572 0)
(0.0984171 -0.0009761 0)
(0.100174 -0.000339403 0)
(0.10227 0.000124045 0)
(0.104188 0.000481186 0)
(0.105767 0.000597255 0)
(0.106847 0.000612268 0)
(0.107542 0.00052944 0)
(0.1079 0.000434818 0)
(0.108094 0.000331909 0)
(-0.0605005 -0.00752545 0)
(-0.00579698 0.0108805 0)
(-0.0069478 0.0189423 0)
(0.0317942 0.0586525 0)
(0.0496873 0.070089 0)
(0.0642631 0.0610177 0)
(0.068913 0.0450446 0)
(0.0741941 0.0239813 0)
(0.0779546 0.000655028 0)
(0.0820841 -0.0211114 0)
(0.0825852 -0.0375961 0)
(0.0829253 -0.0487663 0)
(0.0833441 -0.0556254 0)
(0.0865866 -0.0601372 0)
(0.0915765 -0.0652096 0)
(0.0956262 -0.0684715 0)
(0.0976298 -0.0670351 0)
(0.0950712 -0.0613951 0)
(0.0937987 -0.0504183 0)
(0.0940397 -0.0380326 0)
(0.0916989 -0.030118 0)
(0.0899959 -0.0248873 0)
(0.0911412 -0.0195871 0)
(0.0929457 -0.015264 0)
(0.0935874 -0.0126854 0)
(0.0941476 -0.0105219 0)
(0.0955068 -0.00758657 0)
(0.09732 -0.0044651 0)
(0.0983508 -0.00219886 0)
(0.0984371 -0.00128875 0)
(0.0979607 -0.00120398 0)
(0.0978128 -0.00143643 0)
(0.0982881 -0.00144984 0)
(0.0994878 -0.00130032 0)
(0.101126 -0.000935207 0)
(0.102919 -0.000612244 0)
(0.104592 -0.000276133 0)
(0.105964 -5.50415e-05 0)
(0.106877 0.000108027 0)
(0.107683 0.000207068 0)
(0.105307 0.0393008 0)
(0.0715425 0.0181724 0)
(0.0468105 0.00828684 0)
(0.0424789 0.0209247 0)
(0.0639522 0.0389608 0)
(0.0837789 0.0403306 0)
(0.0963779 0.0321806 0)
(0.104948 0.0163079 0)
(0.11086 -0.00305512 0)
(0.113786 -0.0227141 0)
(0.112671 -0.0386684 0)
(0.111207 -0.0500505 0)
(0.112007 -0.0584261 0)
(0.114365 -0.0640716 0)
(0.118146 -0.0674471 0)
(0.117865 -0.0688135 0)
(0.11331 -0.0658115 0)
(0.107283 -0.0582473 0)
(0.100596 -0.0487917 0)
(0.0975552 -0.0377447 0)
(0.0967066 -0.0284405 0)
(0.0953537 -0.0232674 0)
(0.0945295 -0.0200052 0)
(0.0951245 -0.0166563 0)
(0.0959008 -0.0135343 0)
(0.0962645 -0.0110448 0)
(0.096606 -0.0086047 0)
(0.0976807 -0.00592495 0)
(0.0991763 -0.00336139 0)
(0.100684 -0.00168232 0)
(0.101628 -0.000977814 0)
(0.102082 -0.00113928 0)
(0.10212 -0.00152097 0)
(0.102149 -0.00195707 0)
(0.102357 -0.00205831 0)
(0.102936 -0.00196703 0)
(0.103773 -0.00164773 0)
(0.104898 -0.00117627 0)
(0.105703 -0.000850729 0)
(0.106909 -0.00028167 0)
(0.141235 0.0457829 0)
(0.131582 0.0418132 0)
(0.124683 0.0388293 0)
(0.107673 0.0391933 0)
(0.105061 0.0380434 0)
(0.112285 0.0339488 0)
(0.120923 0.0256122 0)
(0.128849 0.0117685 0)
(0.13519 -0.00563795 0)
(0.139672 -0.0230898 0)
(0.141298 -0.037313 0)
(0.140392 -0.0497437 0)
(0.140469 -0.0585381 0)
(0.140791 -0.0636142 0)
(0.13741 -0.0663803 0)
(0.131252 -0.0647211 0)
(0.120597 -0.0593347 0)
(0.109417 -0.0514534 0)
(0.101648 -0.0428404 0)
(0.0975061 -0.0353033 0)
(0.097141 -0.0289484 0)
(0.0988513 -0.0236664 0)
(0.100354 -0.0194311 0)
(0.100835 -0.0161021 0)
(0.100482 -0.0134041 0)
(0.10012 -0.0110055 0)
(0.100127 -0.00860814 0)
(0.100682 -0.0063417 0)
(0.101472 -0.00441676 0)