/*--------------------------------*- C++ -*----------------------------------*\
| =========                 |                                                 |
| \\      /  F ield         | OpenFOAM: The Open Source CFD Toolbox           |
|  \\    /   O peration     | Version:  2112                                  |
|   \\  /    A nd           | Website:  www.openfoam.com                      |
|    \\/     M anipulation  |                                                 |
\*---------------------------------------------------------------------------*/
FoamFile
{
    version     2.0;
    format      ascii;
    arch        "LSB;label=32;scalar=64";
    class       volScalarField;
    location    "0.11";
    object      nut;
}
// * * * * * * * * * * * * * * * * * * * * * * * * * * * * * * * * * * * * * //

dimensions      [0 2 -1 0 0 0 0];

internalField   nonuniform List<scalar> 
1880
(
3.57346e-11
3.71061e-12
2.74175e-13
1.43963e-15
9.5471e-13
2.26272e-13
1.58293e-13
1.28091e-14
4.73671e-13
9.94985e-13
7.20578e-13
2.54448e-13
6.44513e-14
1.24814e-14
8.54533e-16
2.33849e-16
4.802e-16
1.54214e-14
1.7839e-14
1.7832e-13
3.34341e-13
1.41658e-12
2.49132e-12
6.34195e-12
7.11305e-12
2.21184e-11
3.90251e-11
1.03865e-10
3.27172e-09
1.10326e-09
4.88568e-09
5.42473e-09
1.69034e-09
1.10946e-09
1.99878e-10
1.10873e-10
1.56727e-10
3.21257e-11
4.52329e-11
2.03256e-10
2.22235e-10
9.6902e-11
2.42451e-11
3.21316e-12
2.009e-13
4.02036e-13
6.44671e-13
1.94664e-11
5.34313e-12
1.37875e-10
3.995e-11
5.04461e-10
3.34289e-10
1.12828e-09
2.13896e-09
3.66946e-09
7.57234e-09
2.11785e-08
2.72372e-08
8.01263e-08
5.95841e-10
6.97658e-09
1.64871e-09
6.6384e-09
7.41109e-09
7.92172e-09
4.99634e-09
3.74422e-09
6.3166e-09
9.24738e-09
1.78604e-08
9.42301e-10
5.52311e-11
4.87362e-10
6.71255e-10
1.39659e-09
1.62836e-09
3.25892e-09
2.64363e-09
6.22953e-09
3.70695e-09
1.00856e-08
6.58044e-09
1.3669e-08
1.61952e-08
1.83493e-08
3.21704e-08
2.89537e-08
4.69959e-08
5.33072e-08
3.05965e-10
3.64538e-09
1.54341e-09
1.017e-08
7.1631e-09
7.63392e-09
5.46652e-09
3.33028e-09
9.6092e-10
8.98772e-10
2.29033e-09
3.01191e-09
1.90232e-09
2.18497e-09
2.24858e-09
2.74846e-09
3.05834e-09
4.25549e-09
4.24724e-09
6.34235e-09
5.74723e-09
8.90704e-09
7.76266e-09
1.24526e-08
1.24309e-08
1.9057e-08
2.03754e-08
2.99884e-08
3.28586e-08
4.44347e-08
2.19375e-10
6.00064e-09
4.13799e-10
7.63535e-09
4.96136e-09
5.26263e-09
3.99918e-09
1.98283e-09
4.49403e-09
3.77631e-09
2.49865e-10
7.83633e-10
8.84616e-10
1.92881e-09
1.65719e-09
2.37234e-09
2.66587e-09
3.88157e-09
3.90351e-09
5.678e-09
5.40434e-09
7.98133e-09
8.87909e-09
1.30165e-08
1.77328e-08
2.13594e-08
2.79213e-08
2.72552e-08
3.42509e-08
3.18632e-08
7.10953e-10
4.6923e-09
1.01212e-09
1.0098e-08
2.0494e-09
1.94129e-09
6.90793e-09
4.30581e-09
4.60822e-09
3.68519e-09
1.48124e-09
2.26582e-09
1.65005e-10
1.22902e-09
1.3493e-09
2.04294e-09
2.57186e-09
3.60752e-09
3.94562e-09
5.31378e-09
5.46119e-09
7.38348e-09
8.08469e-09
1.12388e-08
1.30322e-08
1.5569e-08
1.74109e-08
2.07019e-08
2.27932e-08
2.88946e-08
8.46195e-10
4.79803e-09
6.86927e-10
8.87099e-09
2.59093e-09
2.80622e-09
5.88113e-09
3.42132e-09
4.08895e-09
3.42252e-09
8.74428e-10
1.6053e-09
2.16025e-10
1.35845e-09
1.27429e-09
1.92481e-09
2.5341e-09
3.38271e-09
3.93489e-09
4.87932e-09
5.48419e-09
6.7632e-09
8.61573e-09
1.11421e-08
1.48643e-08
1.58967e-08
1.9372e-08
1.81146e-08
2.18117e-08
2.58447e-08
1.2154e-09
4.57029e-09
1.12805e-09
9.73325e-09
2.23237e-09
2.41028e-09
7.18758e-09
4.57372e-09
3.72119e-09
2.99764e-09
1.60511e-09
2.18134e-09
7.4457e-10
1.3227e-09
1.44404e-09
1.91447e-09
2.62169e-09
3.22317e-09
3.98734e-09
4.58876e-09
5.47037e-09
6.29668e-09
7.93902e-09
9.72248e-09
1.18267e-08
1.28552e-08
1.43367e-08
1.66764e-08
1.83806e-08
2.2174e-08
1.57386e-09
4.2114e-09
1.33838e-09
9.70192e-09
2.7409e-09
3.21804e-09
7.10579e-09
4.60726e-09
4.36445e-09
3.45207e-09
1.88565e-09
2.30269e-09
1.22383e-09
1.5787e-09
1.69987e-09
2.03152e-09
2.73492e-09
3.13882e-09
4.01837e-09
4.34658e-09
5.44322e-09
5.89741e-09
7.7544e-09
9.11321e-09
1.13662e-08
1.20716e-08
1.34758e-08
1.50218e-08
1.66253e-08
2.10086e-08
1.94784e-09
3.69032e-09
1.60745e-09
9.84037e-09
3.20744e-09
3.85329e-09
7.33226e-09
4.90606e-09
4.58981e-09
3.574e-09
2.23665e-09
2.57869e-09
1.6132e-09
1.82866e-09
1.97186e-09
2.20113e-09
2.8604e-09
3.12123e-09
4.03317e-09
4.21235e-09
5.36475e-09
5.64014e-09
7.27384e-09
8.33802e-09
9.9079e-09
1.10366e-08
1.19123e-08
1.40716e-08
1.55581e-08
1.73778e-08
2.2602e-09
3.02268e-09
1.86343e-09
9.99943e-09
3.64039e-09
4.35639e-09
7.55119e-09
5.22155e-09
4.60646e-09
3.59484e-09
2.57098e-09
2.87136e-09
1.94803e-09
2.07563e-09
2.22345e-09
2.38769e-09
2.97599e-09
3.14196e-09
4.02158e-09
4.12552e-09
5.26084e-09
5.45252e-09
6.93165e-09
7.82211e-09
9.10219e-09
1.03273e-08
1.10126e-08
1.31897e-08
1.42451e-08
1.67663e-08
2.37239e-09
2.29471e-09
1.92345e-09
9.8823e-09
4.56631e-09
5.29172e-09
7.20205e-09
5.03471e-09
5.08853e-09
4.06577e-09
2.75328e-09
3.0268e-09
2.23578e-09
2.32892e-09
2.42854e-09
2.55836e-09
3.05763e-09
3.18265e-09
3.97995e-09
4.08088e-09
5.12978e-09
5.33048e-09
6.58199e-09
7.39859e-09
8.36263e-09
9.7333e-09
1.03088e-08
1.21523e-08
1.34032e-08
1.46146e-08
2.193e-09
1.96379e-09
2.04256e-09
1.01519e-08
5.00391e-09
5.54867e-09
7.43275e-09
5.39783e-09
4.65064e-09
3.7552e-09
3.15878e-09
3.44787e-09
2.4762e-09
2.47247e-09
2.59785e-09
2.69494e-09
3.11548e-09
3.21274e-09
3.91762e-09
4.04539e-09
4.98251e-09
5.23469e-09
6.28603e-09
7.07402e-09
7.82955e-09
9.22235e-09
9.73939e-09
1.14401e-08
1.24624e-08
1.38837e-08
1.59539e-09
2.18972e-09
1.57408e-09
9.32717e-09
6.33328e-09
6.78798e-09
6.38731e-09
4.77291e-09
5.0827e-09
4.30749e-09
3.20718e-09
3.35392e-09
2.65975e-09
2.67927e-09
2.67186e-09
2.75915e-09
3.09263e-09
3.21564e-09
3.81732e-09
4.00324e-09
4.8201e-09
5.14612e-09
6.02873e-09
6.81484e-09
7.4344e-09
8.78142e-09
9.29822e-09
1.06939e-08
1.17501e-08
1.27742e-08
1.19277e-09
3.85868e-09
1.91775e-09
1.06035e-08
5.19908e-09
5.58988e-09
7.30389e-09
5.55976e-09
3.78278e-09
3.67462e-09
3.51717e-09
3.76713e-09
2.81306e-09
2.68198e-09
2.74166e-09
2.79656e-09
3.06799e-09
3.17922e-09
3.70943e-09
3.94525e-09
4.65927e-09
5.05519e-09
5.80982e-09
6.59544e-09
7.14e-09
8.40137e-09
8.92396e-09
1.0143e-08
1.10924e-08
1.20923e-08
3.99364e-10
5.74264e-09
1.28184e-09
8.30698e-09
7.00607e-09
7.54976e-09
5.00915e-09
3.98673e-09
5.03711e-09
4.74654e-09
3.47202e-09
3.61474e-09
2.81626e-09
2.74572e-09
2.58896e-09
2.64493e-09
2.87924e-09
3.07581e-09
3.54185e-09
3.86242e-09
4.49085e-09
4.95891e-09
5.62108e-09
6.40633e-09
6.91704e-09
8.07274e-09
8.62089e-09
9.66869e-09
1.05689e-08
1.14592e-08
3.91099e-10
3.58346e-09
1.90363e-09
1.07021e-08
2.8429e-09
3.38153e-09
6.04405e-09
4.80292e-09
2.62063e-09
3.30714e-09
4.06414e-09
4.0044e-09
2.78214e-09
2.51442e-09
2.45463e-09
2.51314e-09
2.72001e-09
2.9181e-09
3.37131e-09
3.74834e-09
4.32053e-09
4.85576e-09
5.44347e-09
6.24207e-09
6.73642e-09
7.79438e-09
8.3645e-09
9.31029e-09
1.01276e-08
1.1003e-08
7.40287e-10
7.30636e-09
2.48047e-09
7.2839e-09
8.58452e-09
8.50702e-09
5.69753e-09
4.76275e-09
6.16611e-09
2.96447e-09
3.55428e-10
1.09148e-08
2.13714e-08
1.658e-08
3.64969e-09
1.23473e-10
1.49878e-12
1.41961e-10
5.47257e-10
1.15412e-09
1.81926e-09
2.80302e-09
3.27235e-09
4.76334e-09
4.9641e-09
6.60168e-09
7.01765e-09
8.38755e-09
8.87397e-09
1.02894e-08
4.95769e-09
5.20604e-09
1.543e-09
1.06706e-09
1.58137e-10
8.44661e-11
1.33617e-10
4.00225e-11
1.23103e-10
4.16514e-10
4.26276e-10
2.18733e-10
8.05094e-11
2.90143e-11
1.0223e-11
3.92226e-12
2.04802e-12
1.35709e-12
1.21179e-12
1.12558e-12
1.22449e-12
9.60105e-13
1.4664e-12
5.74686e-13
9.69986e-13
3.98488e-13
1.20815e-13
2.14052e-14
7.95383e-14
1.30023e-12
3.5085e-11
3.57971e-12
2.71927e-13
5.10698e-16
8.93366e-13
1.89822e-13
1.40551e-13
2.68424e-14
5.7935e-13
1.20694e-12
8.9854e-13
3.57635e-13
1.16103e-13
4.08342e-14
1.18594e-14
3.19244e-15
1.22325e-15
7.07365e-16
5.93674e-16
6.03915e-16
6.50262e-16
8.35459e-16
9.5325e-16
1.22952e-15
1.1891e-15
1.68463e-15
5.53716e-16
1.09512e-15
1.25549e-16
5.1309e-17
5.72703e-08
1.30421e-11
2.85733e-09
1.14532e-08
8.885e-13
4.41582e-09
5.74428e-09
1.60329e-10
1.36312e-08
1.23366e-08
5.49417e-08
9.94602e-08
2.67514e-08
4.4331e-08
2.31425e-07
8.60536e-09
3.36924e-09
1.12318e-06
2.06809e-06
1.30599e-08
7.75535e-08
5.40519e-08
3.42864e-08
7.91438e-08
7.91058e-08
7.02894e-08
6.791e-09
1.7001e-07
1.45413e-06
7.45122e-07
5.96538e-08
4.71367e-08
5.43522e-08
4.77016e-08
7.10421e-08
1.02525e-08
4.03507e-08
1.21713e-07
7.31338e-08
2.18492e-07
4.82425e-08
4.14656e-08
3.15948e-08
4.03502e-08
4.80167e-08
3.68937e-08
5.56777e-08
7.52554e-08
6.93932e-08
3.44703e-08
3.73708e-08
3.17558e-08
3.63771e-08
3.51915e-08
4.0417e-08
4.32753e-08
3.68505e-08
6.28902e-08
4.9419e-08
5.5644e-09
3.18399e-08
3.28815e-08
2.90681e-08
2.78768e-08
3.7495e-08
3.80705e-08
3.33029e-08
4.20052e-08
4.69113e-08
2.72146e-08
3.014e-08
2.52429e-08
2.89745e-08
3.21977e-08
2.99168e-08
3.45209e-08
3.46843e-08
3.58999e-08
3.22894e-08
2.35253e-08
2.34572e-08
2.47742e-08
2.54305e-08
2.45738e-08
2.85502e-08
2.99222e-08
2.68394e-08
2.99153e-08
3.06201e-08
2.3049e-08
2.38116e-08
2.09725e-08
2.29063e-08
2.55538e-08
2.43376e-08
2.58895e-08
2.61234e-08
2.49315e-08
2.36391e-08
2.10325e-08
1.87162e-08
1.94106e-08
2.09583e-08
2.17091e-08
2.28182e-08
2.28473e-08
2.1704e-08
2.18742e-08
2.15812e-08
1.84518e-08
1.80297e-08
1.74097e-08
1.87686e-08
2.06406e-08
2.07466e-08
2.02057e-08
1.97508e-08
1.88133e-08
1.80024e-08
1.61824e-08
1.53451e-08
1.60126e-08
1.72647e-08
1.84487e-08
1.89967e-08
1.81474e-08
1.72536e-08
1.6664e-08
1.60491e-08
1.41937e-08
1.42285e-08
1.47512e-08
1.57503e-08
1.70003e-08
1.73034e-08
1.63905e-08
1.55736e-08
1.46503e-08
1.3921e-08
1.23358e-08
1.29594e-08
1.37375e-08
1.45807e-08
1.54848e-08
1.57914e-08
1.49219e-08
1.40159e-08
1.31442e-08
1.23657e-08
1.0864e-08
1.21809e-08
1.29094e-08
1.35755e-08
1.42639e-08
1.4413e-08
1.37229e-08
1.28359e-08
1.18596e-08
1.09886e-08
9.59282e-09
1.1584e-08
1.22455e-08
1.27705e-08
1.3249e-08
1.3319e-08
1.27985e-08
1.19184e-08
1.09783e-08
1.00407e-08
8.74468e-09
1.05966e-08
1.07895e-08
1.11632e-08
1.09209e-08
1.10959e-08
9.86214e-09
9.11387e-09
6.84801e-09
6.03516e-09
3.83794e-09
1.86372e-12
7.92843e-12
1.53631e-11
3.35482e-11
4.81138e-11
6.99047e-11
6.46553e-11
5.99203e-11
4.99703e-11
4.53018e-11
4.70844e-16
3.01793e-15
7.31389e-15
1.26307e-14
1.71796e-14
3.52235e-14
4.53371e-14
4.25303e-14
4.83974e-14
3.30459e-14
8.04697e-08
3.50323e-09
1.06507e-08
5.93987e-09
3.51885e-09
4.45219e-09
1.3665e-08
5.86984e-08
1.26978e-07
3.68161e-08
4.17433e-09
5.25133e-10
8.16116e-11
1.42046e-11
2.52256e-12
4.30768e-13
6.80842e-14
9.61176e-15
1.16833e-15
1.16733e-16
9.78258e-18
1.35919e-18
8.36101e-19
8.1386e-19
7.13116e-19
5.38562e-19
3.71885e-19
2.14585e-19
1.59862e-19
7.31507e-20
8.94624e-20
2.99787e-20
5.26048e-20
1.93883e-20
1.60924e-20
2.3218e-20
2.00804e-20
4.03759e-20
4.3472e-20
8.02241e-20
7.12319e-08
1.76102e-07
1.86821e-07
6.64958e-08
4.37183e-08
1.6092e-07
1.82096e-07
1.64467e-07
1.41606e-07
1.15216e-07
9.30017e-08
7.10554e-08
4.91184e-08
2.85493e-08
1.31059e-08
4.73713e-09
1.43625e-09
3.97647e-10
1.07903e-10
3.01231e-11
8.91904e-12
2.85062e-12
9.9086e-13
3.73927e-13
1.5216e-13
6.60091e-14
3.0474e-14
1.44593e-14
7.41071e-15
3.55875e-15
2.05658e-15
9.32017e-16
5.66482e-16
2.73659e-16
1.29028e-16
7.72555e-17
2.93081e-17
1.42482e-17
2.24124e-18
1.17895e-18
1.78044e-07
1.27167e-07
1.17429e-07
9.30059e-07
1.32938e-06
9.38553e-08
2.06528e-07
1.86524e-07
1.5544e-07
1.20937e-07
9.53207e-08
7.67471e-08
6.23454e-08
4.98972e-08
3.92582e-08
3.05973e-08
2.37198e-08
1.81901e-08
1.35883e-08
9.67039e-09
6.40569e-09
3.88458e-09
2.15064e-09
1.10047e-09
5.32573e-10
2.49456e-10
1.16099e-10
5.36578e-11
2.58135e-11
1.19019e-11
6.2329e-12
2.80598e-12
1.56604e-12
7.4429e-13
3.78847e-13
1.96249e-13
9.77923e-14
4.21817e-14
1.73348e-14
6.93046e-15
1.13946e-08
1.85042e-07
3.08668e-08
3.31573e-06
3.69253e-06
1.41327e-06
8.98463e-08
1.85071e-07
1.67728e-07
1.32423e-07
1.02299e-07
7.74522e-08
5.95384e-08
4.72281e-08
3.7597e-08
2.95053e-08
2.29051e-08
1.77652e-08
1.387e-08
1.09404e-08
8.7251e-09
7.02944e-09
5.71201e-09
4.67219e-09
3.83943e-09
3.16155e-09
2.60505e-09
2.13542e-09
1.74895e-09
1.40014e-09
1.13276e-09
8.60093e-10
6.79413e-10
4.82707e-10
3.59007e-10
2.35278e-10
1.70231e-10
9.37323e-11
6.66427e-11
3.16159e-11
6.63193e-07
2.60345e-07
3.25653e-07
4.11048e-06
4.78244e-06
3.37779e-06
3.89102e-08
4.55622e-08
1.26899e-07
1.39645e-07
1.03921e-07
7.52521e-08
5.7927e-08
4.50264e-08
3.49776e-08
2.73416e-08
2.1398e-08
1.67583e-08
1.31884e-08
1.04654e-08
8.38349e-09
6.77633e-09
5.52064e-09
4.52742e-09
3.73379e-09
3.09277e-09
2.57334e-09
2.14504e-09
1.79929e-09
1.50217e-09
1.27446e-09
1.05872e-09
9.12699e-10
7.53751e-10
6.59233e-10
5.41827e-10
4.86564e-10
3.91621e-10
3.65903e-10
2.91097e-10
1.58185e-06
1.24227e-07
4.18034e-08
3.48995e-06
4.63208e-06
3.25755e-06
8.84335e-08
8.00739e-09
2.91504e-08
6.35364e-08
1.01617e-07
9.2876e-08
6.20798e-08
4.28229e-08
3.27137e-08
2.56286e-08
2.00461e-08
1.57573e-08
1.24964e-08
1.0004e-08
8.08006e-09
6.57708e-09
5.38891e-09
4.43921e-09
3.67357e-09
3.05036e-09
2.54232e-09
2.12093e-09
1.77983e-09
1.48525e-09
1.2591e-09
1.0448e-09
8.98338e-10
7.40619e-10
6.455e-10
5.28031e-10
4.7299e-10
3.77485e-10
3.53421e-10
2.75798e-10
9.41004e-08
2.5523e-07
3.13456e-07
6.88017e-08
3.80238e-06
3.79323e-06
1.80964e-07
4.47428e-09
5.11972e-08
6.1796e-08
4.94466e-08
5.30341e-08
6.31761e-08
5.61948e-08
3.89391e-08
2.68845e-08
1.99155e-08
1.53732e-08
1.20977e-08
9.66412e-09
7.82046e-09
6.39135e-09
5.26021e-09
4.35071e-09
3.61254e-09
3.00785e-09
2.51251e-09
2.09923e-09
1.76411e-09
1.47256e-09
1.24919e-09
1.03607e-09
8.89645e-10
7.33471e-10
6.36206e-10
5.19712e-10
4.62742e-10
3.67046e-10
3.40549e-10
2.62426e-10
2.04144e-07
2.90839e-06
1.38433e-07
6.09239e-09
2.70445e-06
2.34358e-06
4.2549e-08
1.66333e-09
1.04852e-08
1.02521e-07
1.07719e-07
7.81689e-08
4.53706e-08
4.08652e-08
4.09693e-08
3.28604e-08
2.30527e-08
1.62834e-08
1.21226e-08
9.48533e-09
7.68836e-09
6.35496e-09
5.2967e-09
4.42691e-09
3.70428e-09
3.10101e-09
2.6003e-09
2.17787e-09
1.83384e-09
1.53166e-09
1.30059e-09
1.07827e-09
9.24714e-10
7.62561e-10
6.57982e-10
5.36932e-10
4.74843e-10
3.74222e-10
3.43374e-10
2.60854e-10
6.57554e-07
2.28295e-06
1.39203e-07
9.14707e-08
1.59773e-06
9.01994e-10
1.20083e-07
7.18472e-08
8.89312e-08
9.18535e-08
1.1266e-06
1.07128e-06
4.51282e-07
3.5699e-08
3.57362e-08
2.81218e-08
2.29103e-08
1.80951e-08
1.3839e-08
1.05495e-08
8.19123e-09
6.52671e-09
5.31666e-09
4.39342e-09
3.66011e-09
3.06091e-09
2.56814e-09
2.15277e-09
1.81506e-09
1.51639e-09
1.28878e-09
1.068e-09
9.14794e-10
7.54613e-10
6.47622e-10
5.27948e-10
4.63581e-10
3.62821e-10
3.28756e-10
2.45517e-10
7.69382e-08
1.02502e-08
1.6874e-07
1.11497e-07
1.09636e-07
1.41233e-07
1.11784e-07
1.86365e-09
2.96703e-08
1.67307e-07
8.25322e-08
7.70889e-07
4.02899e-07
2.611e-07
3.06833e-07
1.9473e-07
8.95724e-09
4.88515e-09
7.65978e-09
7.31248e-09
6.48271e-09
5.65014e-09
4.874e-09
4.16597e-09
3.53703e-09
2.98933e-09
2.52352e-09
2.12278e-09
1.79427e-09
1.50035e-09
1.27668e-09
1.05776e-09
9.05115e-10
7.4691e-10
6.37773e-10
5.19471e-10
4.53015e-10
3.52119e-10
3.1491e-10
2.30594e-10
1.40704e-07
6.83521e-08
6.97503e-08
4.09695e-08
8.55897e-08
1.02695e-07
5.65444e-08
1.06534e-07
8.2529e-09
2.10141e-08
9.97112e-09
2.3264e-09
9.65361e-09
4.48035e-08
5.2012e-08
3.62967e-08
2.4137e-08
1.71134e-08
1.26265e-08
9.52136e-09
7.4055e-09
5.97139e-09
4.94473e-09
4.1488e-09
3.49786e-09
2.95087e-09
2.4919e-09
2.09795e-09
1.77557e-09
1.48542e-09
1.26526e-09
1.04816e-09
8.96213e-10
7.39872e-10
6.29026e-10
5.12027e-10
4.43796e-10
3.42812e-10
3.02742e-10
2.16991e-10
9.54329e-08
9.94131e-08
1.87471e-08
3.90292e-08
3.44029e-08
6.43021e-08
1.06409e-07
9.46625e-08
2.57911e-09
8.18098e-08
8.58603e-08
2.80331e-08
8.46949e-08
8.68986e-08
6.23039e-08
4.09157e-08
2.74142e-08
1.90972e-08
1.35474e-08
9.78197e-09
7.35646e-09
5.83775e-09
4.82123e-09
4.05563e-09
3.43084e-09
2.90278e-09
2.45721e-09
2.07247e-09
1.75696e-09
1.47104e-09
1.25442e-09
1.0393e-09
8.88301e-10
7.337e-10
6.21757e-10
5.05936e-10
4.36399e-10
3.35423e-10
2.93069e-10
2.05684e-10
6.60035e-08
7.81605e-08
3.85304e-08
2.83624e-08
3.2158e-08
3.71021e-08
1.30625e-09
4.23354e-08
1.40923e-08
9.62522e-08
9.38464e-09
7.74434e-07
7.68913e-07
2.97789e-07
3.74132e-08
2.63319e-08
2.63353e-08
1.94494e-08
1.24414e-08
8.58442e-09
6.56548e-09
5.40244e-09
4.59206e-09
3.92879e-09
3.35424e-09
2.85275e-09
2.42285e-09
2.04794e-09
1.73927e-09
1.45771e-09
1.2445e-09
1.03148e-09
8.81701e-10
7.28654e-10
6.16326e-10
5.01514e-10
4.31252e-10
3.30438e-10
2.86634e-10
1.97897e-10
6.09243e-08
5.00673e-08
4.7487e-08
3.2485e-08
2.77869e-08
4.74113e-08
2.6821e-08
4.33783e-09
3.57985e-07
5.33623e-08
1.78219e-10
9.56272e-09
9.4545e-09
3.78156e-08
4.52612e-08
3.69748e-08
2.73203e-08
1.96327e-08
1.39145e-08
9.89832e-09
7.31246e-09
5.72602e-09
4.69435e-09
3.93792e-09
3.33216e-09
2.82482e-09
2.39775e-09
2.02773e-09
1.7238e-09
1.44601e-09
1.23581e-09
1.02492e-09
8.76611e-10
7.24882e-10
6.12939e-10
4.98943e-10
4.28623e-10
3.28159e-10
2.83938e-10
1.94777e-10
3.66211e-08
4.08025e-08
2.83738e-08
3.34744e-08
4.4827e-08
2.4803e-08
3.93398e-08
5.74607e-08
5.32371e-08
2.83515e-08
2.12307e-07
8.44202e-09
3.40127e-08
4.09411e-08
3.66212e-08
2.95788e-08
2.23476e-08
1.55535e-08
1.04911e-08
7.56652e-09
6.03883e-09
5.12136e-09
4.41586e-09
3.80108e-09
3.25701e-09
2.77882e-09
2.36728e-09
2.00667e-09
1.70883e-09
1.43543e-09
1.22825e-09
1.01965e-09
8.73096e-10
7.22446e-10
6.11676e-10
4.98292e-10
4.28608e-10
3.28687e-10
2.85154e-10
1.96831e-10
3.68703e-08
3.16336e-08
3.11602e-08
2.4589e-08
2.4585e-08
3.43112e-08
3.04929e-08
1.50922e-08
3.91697e-08
4.72953e-08
3.70008e-08
2.99073e-08
3.55719e-08
3.37527e-08
2.92244e-08
2.45284e-08
1.94181e-08
1.46512e-08
1.08325e-08
8.163e-09
6.44492e-09
5.30583e-09
4.46787e-09
3.79571e-09
3.23359e-09
2.75368e-09
2.3457e-09
1.98993e-09
1.69624e-09
1.42666e-09
1.22209e-09
1.01577e-09
8.71177e-10
7.21348e-10
6.12486e-10
4.9951e-10
4.3112e-10
3.31906e-10
2.90083e-10
2.03563e-10
2.38904e-08
2.35341e-08
2.18055e-08
2.28786e-08
2.61532e-08
2.41545e-08
2.5928e-08
3.27969e-08
3.38708e-08
2.75575e-08
1.68222e-08
2.60395e-08
3.12375e-08
2.93207e-08
2.48774e-08
1.97197e-08
1.49026e-08
1.10539e-08
8.44091e-09
6.8557e-09
5.82193e-09
5.01643e-09
4.32365e-09
3.71532e-09
3.18372e-09
2.72039e-09
2.32246e-09
1.97374e-09
1.68473e-09
1.41923e-09
1.21715e-09
1.01317e-09
8.70744e-10
7.21505e-10
6.15192e-10
5.02431e-10
4.35903e-10
3.37504e-10
2.98209e-10
2.13794e-10
2.37163e-08
2.13587e-08
2.02022e-08
1.81167e-08
1.83358e-08
2.09201e-08
2.14015e-08
1.75691e-08
2.16959e-08
2.73552e-08
2.49949e-08
1.99341e-08
1.89605e-08
1.82007e-08
1.65803e-08
1.45236e-08
1.21363e-08
9.904e-09
8.15356e-09
6.85009e-09
5.83583e-09
5.00085e-09
4.29144e-09
3.68065e-09
3.15318e-09
2.69597e-09
2.30379e-09
1.96035e-09
1.67508e-09
1.41337e-09
1.21347e-09
1.0118e-09
8.71648e-10
7.22779e-10
6.19515e-10
5.06793e-10
4.42566e-10
3.45021e-10
3.08807e-10
2.26273e-10
1.67271e-08
1.56451e-08
1.51763e-08
1.54773e-08
1.66639e-08
1.77392e-08
1.86426e-08
1.94595e-08
1.95568e-08
1.85952e-08
1.69086e-08
1.6384e-08
1.71783e-08
1.6969e-08
1.52581e-08
1.29278e-08
1.07176e-08
8.95687e-09
7.62253e-09
6.56416e-09
5.6731e-09
4.90038e-09
4.22496e-09
3.63451e-09
3.12023e-09
2.67228e-09
2.2867e-09
1.94863e-09
1.66688e-09
1.40883e-09
1.2109e-09
1.01148e-09
8.73661e-10
7.24979e-10
6.25095e-10
5.12265e-10
4.50629e-10
3.53911e-10
3.21062e-10
2.39969e-10
1.56629e-08
1.43302e-08
1.3279e-08
1.27148e-08
1.27221e-08
1.37931e-08
1.45828e-08
1.55411e-08
1.52584e-08
1.61998e-08
1.67532e-08
1.59276e-08
1.45211e-08
1.31929e-08
1.19241e-08
1.07045e-08
9.52322e-09
8.40117e-09
7.36471e-09
6.42496e-09
5.58331e-09
4.83611e-09
4.1771e-09
3.59858e-09
3.09338e-09
2.6526e-09
2.2724e-09
1.93897e-09
1.66022e-09
1.40556e-09
1.20935e-09
1.01204e-09
8.76521e-10
7.27877e-10
6.31521e-10
5.18471e-10
4.59563e-10
3.63596e-10
3.34166e-10
2.54079e-10
1.20267e-08
1.08885e-08
1.01572e-08
1.03568e-08
1.10463e-08
1.2106e-08
1.28365e-08
1.36534e-08
1.41528e-08
1.40787e-08
1.39378e-08
1.37562e-08
1.32966e-08
1.25267e-08
1.15392e-08
1.04281e-08
9.29788e-09
8.21876e-09
7.22204e-09
6.31705e-09
5.50346e-09
4.77752e-09
4.13411e-09
3.56704e-09
3.07027e-09
2.63594e-09
2.26047e-09
1.93114e-09
1.65495e-09
1.40336e-09
1.20862e-09
1.01325e-09
8.79912e-10
7.312e-10
6.38335e-10
5.25003e-10
4.68822e-10
3.73496e-10
3.47362e-10
2.67937e-10
1.04978e-08
9.40015e-09
8.57764e-09
8.33872e-09
8.50117e-09
9.40721e-09
1.02935e-08
1.14651e-08
1.22662e-08
1.25994e-08
1.28682e-08
1.29008e-08
1.2541e-08
1.18319e-08
1.0933e-08
9.96187e-09
8.97283e-09
8.00099e-09
7.07598e-09
6.21707e-09
5.43331e-09
4.72724e-09
4.09749e-09
3.54016e-09
3.05048e-09
2.6216e-09
2.25012e-09
1.92432e-09
1.65028e-09
1.40143e-09
1.20795e-09
1.01434e-09
8.8302e-10
7.34194e-10
6.44677e-10
5.31027e-10
4.77512e-10
3.82687e-10
3.59735e-10
2.8062e-10
8.5713e-09
7.49002e-09
6.61843e-09
6.51524e-09
6.96342e-09
8.00595e-09
8.9996e-09
1.01356e-08
1.11061e-08
1.16786e-08
1.20039e-08
1.20717e-08
1.18201e-08
1.12658e-08
1.05123e-08
9.65171e-09
8.74237e-09
7.82872e-09
6.94621e-09
6.11812e-09
5.35672e-09
4.66696e-09
4.04923e-09
3.50096e-09
3.01813e-09
2.59473e-09
2.22726e-09
1.90531e-09
1.63336e-09
1.38787e-09
1.19522e-09
1.00414e-09
8.74603e-10
7.25562e-10
6.40369e-10
5.2534e-10
4.75795e-10
3.80084e-10
3.63245e-10
2.80603e-10
7.4602e-09
6.29051e-09
5.52151e-09
5.28671e-09
5.64975e-09
6.67168e-09
7.78901e-09
8.95553e-09
9.99017e-09
1.06586e-08
1.10406e-08
1.11394e-08
1.09226e-08
1.04196e-08
9.7231e-09
8.91904e-09
8.06466e-09
7.20202e-09
6.36383e-09
5.57219e-09
4.83946e-09
4.17115e-09
3.56818e-09
3.02863e-09
2.54858e-09
2.12343e-09
1.74792e-09
1.4173e-09
1.12746e-09
8.72872e-10
6.58662e-10
4.63825e-10
3.3084e-10
1.88318e-10
1.32389e-10
5.43338e-11
4.02141e-11
1.13797e-11
1.45561e-11
2.9053e-12
2.68554e-09
1.84524e-09
1.42954e-09
1.2292e-09
1.14874e-09
1.22833e-09
1.34998e-09
1.44234e-09
1.52438e-09
1.57011e-09
1.56662e-09
1.46573e-09
1.2546e-09
9.8334e-10
7.13903e-10
4.81803e-10
3.00025e-10
1.70179e-10
8.63865e-11
3.8185e-11
1.40318e-11
3.92751e-12
6.81762e-13
3.67275e-14
4.54078e-15
8.32585e-14
2.57902e-13
4.08689e-13
5.27467e-13
4.8223e-13
4.87042e-13
3.41988e-13
2.7927e-13
1.99932e-13
1.1214e-13
8.36991e-14
4.15806e-14
2.25566e-14
7.36124e-15
3.86438e-15
2.66902e-11
1.43723e-11
1.00898e-11
7.7989e-12
5.82355e-12
4.47924e-12
2.62619e-12
6.76413e-13
4.71572e-14
6.24399e-17
9.1739e-15
4.40287e-14
1.08338e-13
1.81095e-13
2.27878e-13
2.39295e-13
2.23255e-13
1.90681e-13
1.52167e-13
1.1557e-13
8.47445e-14
6.05524e-14
4.24064e-14
2.9185e-14
1.97993e-14
1.31918e-14
8.74661e-15
5.57822e-15
3.71487e-15
2.16669e-15
1.52735e-15
7.85197e-16
5.45896e-16
3.00718e-16
1.47243e-16
1.00065e-16
3.92148e-17
1.97062e-17
3.68624e-18
1.99667e-18
1.4808e-14
4.22304e-15
2.00074e-15
1.05983e-15
5.57442e-16
2.43085e-17
2.04907e-16
1.4752e-15
5.7728e-15
8.32844e-15
7.64725e-15
5.94231e-15
4.28341e-15
2.8055e-15
1.64269e-15
8.7883e-16
4.3921e-16
2.07139e-16
9.30364e-17
4.03155e-17
1.70997e-17
7.1893e-18
3.0403e-18
1.30026e-18
5.76958e-19
2.56006e-19
1.30287e-19
5.38409e-20
4.45465e-20
9.6523e-21
2.82831e-20
2.24826e-21
1.62525e-20
3.82428e-21
3.76885e-21
1.24551e-20
8.89461e-21
3.17971e-20
3.19652e-20
7.4304e-20
)
;

boundaryField
{
    inlet
    {
        type            calculated;
        value           nonuniform List<scalar> 
20
(
1.17348e-34
4.37924e-33
1.02338e-33
7.55712e-34
1.50603e-33
3.02938e-33
3.66309e-33
4.28873e-33
4.65359e-33
4.89232e-33
5.02505e-33
5.05449e-33
4.93417e-33
4.4795e-33
3.73197e-33
1.94041e-33
7.99985e-34
1.3571e-33
4.49249e-33
1.17095e-34
)
;
    }
    outlet
    {
        type            calculated;
        value           nonuniform List<scalar> 
27
(
1.06856e-33
8.04864e-34
4.77823e-34
1.96834e-34
5.19616e-35
6.20269e-36
1.43104e-39
4.01972e-36
4.00467e-35
1.59785e-34
4.06427e-34
7.20712e-34
9.91343e-34
1.1936e-33
1.34685e-33
1.46312e-33
7.84002e-34
5.00784e-36
3.27735e-38
1.73185e-40
1.41843e-40
2.70645e-38
3.75717e-36
5.43106e-34
1.51505e-33
1.4051e-33
1.26023e-33
)
;
    }
    lowerWall
    {
        type            fixedValue;
        value           uniform 0;
    }
    upperWall
    {
        type            fixedValue;
        value           uniform 0;
    }
    defaultFaces
    {
        type            empty;
    }
}


// ************************************************************************* //
