/*--------------------------------*- C++ -*----------------------------------*\
| =========                 |                                                 |
| \\      /  F ield         | OpenFOAM: The Open Source CFD Toolbox           |
|  \\    /   O peration     | Version:  2112                                  |
|   \\  /    A nd           | Website:  www.openfoam.com                      |
|    \\/     M anipulation  |                                                 |
\*---------------------------------------------------------------------------*/
FoamFile
{
    version     2.0;
    format      ascii;
    arch        "LSB;label=32;scalar=64";
    class       volScalarField;
    location    "0.11";
    object      p;
}
// * * * * * * * * * * * * * * * * * * * * * * * * * * * * * * * * * * * * * //

dimensions      [0 2 -2 0 0 0 0];

internalField   nonuniform List<scalar> 
1880
(
0.00424113
0.00410789
0.00401476
0.00395783
0.00393763
0.00392724
0.00389554
0.00385836
0.00383956
0.0038304
0.0038184
0.00380757
0.00380472
0.00380976
0.00381893
0.0038325
0.00384999
0.00387592
0.00390575
0.00395003
0.00399645
0.00406803
0.0041404
0.00425252
0.00437122
0.00454466
0.00474389
0.00502114
0.00534837
0.00579394
0.00406049
0.00403347
0.00399095
0.00393996
0.00391843
0.0039152
0.00388808
0.00384981
0.0038318
0.00382641
0.00381626
0.00380477
0.00380125
0.00380627
0.00381476
0.00382718
0.00384286
0.00386709
0.00389463
0.00393586
0.00397944
0.00404469
0.00411324
0.00421207
0.00432273
0.00446549
0.00464251
0.0048244
0.00506994
0.00522012
0.00402776
0.00401286
0.00398182
0.00393435
0.0039119
0.00390969
0.00388453
0.00384807
0.00383286
0.00383001
0.00382002
0.00380647
0.00380026
0.00380246
0.00380818
0.00381709
0.00382983
0.00384932
0.00387372
0.00390705
0.00394694
0.0039984
0.00406106
0.00413568
0.00422987
0.00433056
0.00445779
0.00457899
0.00471268
0.00479429
0.00396982
0.0039656
0.00394995
0.0039124
0.00389317
0.00389378
0.00387204
0.00383784
0.00382381
0.00382203
0.00381261
0.0037986
0.00379106
0.00379158
0.00379498
0.00380105
0.00381
0.00382513
0.003844
0.00387032
0.00390198
0.00394148
0.00399054
0.00404497
0.00411269
0.00418068
0.00426102
0.00432221
0.00438732
0.0043768
0.00394146
0.00394181
0.0039327
0.00389999
0.0038828
0.00388468
0.00386434
0.00383129
0.00381795
0.00381641
0.00380651
0.00379104
0.00378125
0.00377902
0.00377922
0.00378148
0.00378597
0.00379549
0.00380822
0.00382573
0.00384871
0.00387348
0.00390922
0.00393942
0.00398648
0.00401792
0.0040625
0.00407562
0.0040793
0.0040304
0.00391489
0.00391679
0.00391094
0.00388198
0.00386745
0.00387097
0.00385199
0.00382008
0.00380731
0.00380575
0.00379532
0.00377872
0.00376709
0.00376241
0.00375944
0.00375788
0.00375756
0.00376137
0.00376706
0.00377603
0.00378851
0.0038004
0.00381978
0.00383214
0.00385264
0.00386132
0.00386457
0.00384897
0.00380595
0.00372685
0.00389514
0.00389836
0.00389476
0.00386827
0.0038556
0.00386019
0.00384188
0.00381037
0.00379756
0.00379542
0.0037839
0.00376564
0.00375173
0.00374417
0.00373768
0.00373187
0.00372647
0.00372417
0.00372267
0.00372277
0.00372503
0.00372385
0.00372892
0.00372249
0.00372343
0.00370658
0.00368271
0.00363939
0.00356519
0.00346558
0.00387951
0.00388331
0.00388076
0.00385548
0.00384383
0.00384899
0.00383093
0.00379945
0.00378633
0.00378342
0.00377066
0.00375067
0.00373445
0.00372399
0.00371396
0.00370388
0.00369338
0.00368502
0.00367634
0.00366798
0.00366007
0.00364746
0.00363813
0.00361714
0.00359768
0.00356369
0.00351421
0.00345111
0.00335633
0.00323565
0.00386752
0.00387159
0.00386952
0.00384486
0.00383373
0.00383909
0.00382094
0.0037891
0.00377529
0.00377129
0.00375705
0.0037351
0.00371643
0.00370296
0.00368934
0.00367496
0.00365945
0.00364515
0.00362956
0.00361316
0.00359582
0.00357263
0.00355079
0.00351623
0.00348088
0.00343055
0.0033629
0.0032835
0.0031727
0.00303998
0.0038589
0.00386302
0.00386105
0.00383647
0.00382529
0.00383036
0.00381171
0.00377914
0.00376433
0.00375902
0.00374313
0.00371912
0.00369795
0.00368148
0.00366435
0.00364579
0.00362549
0.00360554
0.00358346
0.00355967
0.00353364
0.00350125
0.00346804
0.00342241
0.00337299
0.00330987
0.00322811
0.00313533
0.00301526
0.00287155
0.00385359
0.00385758
0.00385535
0.00383038
0.00381865
0.003823
0.00380351
0.00376989
0.00375382
0.00374701
0.00372935
0.00370318
0.00367952
0.00366012
0.00363962
0.00361709
0.0035923
0.00356708
0.00353907
0.00350856
0.0034748
0.00343431
0.00339133
0.00333623
0.00327546
0.00320175
0.00310937
0.0030069
0.0028789
0.00272994
0.00385167
0.00385535
0.00385256
0.0038268
0.00381416
0.0038174
0.00379679
0.0037618
0.0037442
0.0037357
0.00371616
0.00368779
0.00366164
0.00363941
0.00361573
0.00358948
0.00356055
0.00353052
0.00349719
0.00346072
0.00342015
0.00337273
0.00332135
0.0032585
0.0031885
0.00310626
0.00300643
0.00289603
0.00276362
0.00261059
0.00385341
0.00385653
0.00385265
0.00382539
0.00381105
0.00381295
0.00379076
0.00375413
0.00373486
0.0037246
0.00370321
0.00367274
0.0036443
0.00361949
0.00359294
0.00356335
0.00353075
0.00349646
0.00345846
0.00341679
0.00337037
0.00331707
0.00325868
0.0031895
0.00311217
0.00302337
0.00291802
0.00280207
0.00266615
0.00251173
0.00385957
0.00386203
0.00385688
0.00382789
0.00381171
0.0038118
0.00378787
0.00374928
0.00372787
0.00371554
0.00369204
0.00365928
0.00362851
0.00360121
0.003572
0.00353938
0.00350351
0.00346547
0.00342344
0.00337731
0.00332595
0.00326776
0.00320362
0.00312938
0.00304638
0.00295249
0.00284336
0.00272327
0.00258559
0.00243063
0.00387016
0.00387097
0.00386301
0.00383079
0.00381175
0.0038095
0.00378343
0.00374262
0.0037191
0.00370488
0.00367965
0.0036453
0.00361294
0.00358377
0.00355249
0.00351744
0.00347891
0.00343779
0.00339244
0.00334263
0.00328723
0.00322505
0.00315632
0.00307809
0.00299081
0.00289311
0.00278136
0.00265859
0.00251992
0.00236543
0.00388971
0.00388883
0.00387727
0.00384075
0.00381828
0.00381342
0.00378479
0.00374136
0.00371555
0.0036992
0.0036718
0.00363518
0.00360053
0.00356917
0.00353582
0.00349856
0.00345776
0.00341404
0.00336596
0.00331313
0.00325448
0.00318914
0.00311682
0.00303554
0.00294509
0.00284459
0.00273118
0.00260669
0.00246788
0.0023143
0.00391075
0.00390516
0.00388676
0.00384488
0.00381963
0.00381254
0.00378135
0.00373525
0.00370691
0.00368821
0.003659
0.00362137
0.00358632
0.00355449
0.00352029
0.00348179
0.00343956
0.00339405
0.00334397
0.0032889
0.0032278
0.00316007
0.00308506
0.00300155
0.00290885
0.0028064
0.00269201
0.00256657
0.00242804
0.00227568
0.00396448
0.00394797
0.00391379
0.0038615
0.00383244
0.00382182
0.0037863
0.00373694
0.00370631
0.00368525
0.00365388
0.00361455
0.00357778
0.00354455
0.00350882
0.00346909
0.00342564
0.0033787
0.0033271
0.00327035
0.00320743
0.00313797
0.00306101
0.00297597
0.0028817
0.00277803
0.00266317
0.00253731
0.00239937
0.00224829
0.00399298
0.00396433
0.00391851
0.00386235
0.00383374
0.00382148
0.00378316
0.0037309
0.00369629
0.00367144
0.00363854
0.00359977
0.00356451
0.00353228
0.00349758
0.00345825
0.00341472
0.00336731
0.00331494
0.00325729
0.00319324
0.0031228
0.00304454
0.00295864
0.00286338
0.00275896
0.00264407
0.00251819
0.00238101
0.00223113
0.00417212
0.00403708
0.00394036
0.003878
0.00385043
0.00383063
0.0037872
0.00373554
0.00369969
0.00367065
0.00363553
0.00359705
0.00356171
0.0035284
0.0034929
0.00345334
0.00340968
0.00336186
0.00330906
0.00325086
0.00318632
0.00311531
0.00303652
0.00295014
0.00285447
0.00274978
0.00263493
0.00250947
0.00237326
0.00222573
0.00608529
0.00514649
0.00442281
0.00402654
0.00310946
0.0023752
0.00220212
0.000497168
-0.00111629
-0.000709955
0.00535602
0.00448831
0.00383666
0.00366285
0.00254625
0.00180298
0.00140873
-0.000535788
-0.00172727
-0.00263142
0.00481955
0.00429306
0.0037931
0.00337593
0.00253425
0.001797
0.00120366
-0.000197509
-0.00155172
-0.00253792
0.00432412
0.00387566
0.00330686
0.00290849
0.00216551
0.00148538
0.000855766
-7.78777e-05
-0.00126174
-0.0023727
0.0039496
0.00357979
0.00313532
0.00270097
0.00210129
0.00144021
0.000789632
-2.9383e-05
-0.00110868
-0.00192185
0.00361635
0.00327213
0.00283408
0.00236626
0.00184659
0.00122236
0.000577071
-0.000123409
-0.000959621
-0.00165705
0.00334044
0.0030315
0.00263525
0.00221405
0.00174491
0.00117754
0.000585077
-3.22563e-05
-0.000722321
-0.00130258
0.00309734
0.00280058
0.00244082
0.00201276
0.00157746
0.00107244
0.000512146
-3.10497e-05
-0.000594722
-0.00109035
0.00289067
0.0026263
0.00228021
0.0019014
0.00149767
0.00103401
0.000547
6.93481e-05
-0.000406015
-0.000828688
0.00271732
0.00246117
0.00214793
0.00178687
0.00140447
0.000988943
0.000549845
0.000123446
-0.000284566
-0.000655813
0.002569
0.00233505
0.00203932
0.00170985
0.00135632
0.000975304
0.000589995
0.000213394
-0.000145492
-0.000470704
0.00244781
0.0022239
0.00195105
0.00164418
0.00131291
0.000965504
0.000619836
0.000280458
-4.06131e-05
-0.000333782
0.00234652
0.00213595
0.00188116
0.00159684
0.00129006
0.000971788
0.000659099
0.000353044
6.18849e-05
-0.000204429
0.00226505
0.00206348
0.00182545
0.00156047
0.00127489
0.000980807
0.000694078
0.000413463
0.000145391
-0.000100908
0.00219969
0.00200619
0.00178236
0.00153472
0.00126858
0.000995873
0.000729501
0.00046946
0.000220144
-1.05686e-05
0.00214916
0.00196174
0.00174961
0.00151668
0.00126767
0.00101216
0.000761616
0.000517086
0.000282011
6.3352e-05
0.00211143
0.00192867
0.00172572
0.00150507
0.00127038
0.00102908
0.00079066
0.000557889
0.000333947
0.000124353
0.00208549
0.00190654
0.00171076
0.00149969
0.00127661
0.00104588
0.000816214
0.000591661
0.000375657
0.000172409
0.00206899
0.00189271
0.00170235
0.00149828
0.00128354
0.00106104
0.000837704
0.000618751
0.000407777
0.000208736
0.00206651
0.00189342
0.00170655
0.00150636
0.00129543
0.00107679
0.00085666
0.000640067
0.000431298
0.000232891
-0.00691301
-0.00742227
-0.0086274
-0.0104141
-0.0100419
-0.00782426
-0.00502659
-0.00256588
-0.000796409
0.000341428
0.000991411
0.00131317
0.00142666
0.00141908
0.00134739
0.00124651
0.00113678
0.00102897
0.000928192
0.000836387
0.000753798
0.000679852
0.00061364
0.000554175
0.000500517
0.000451812
0.000407312
0.000366365
0.000328434
0.000293033
0.000259792
0.000228335
0.000198396
0.000169704
0.000142013
0.000115169
8.89361e-05
6.32017e-05
3.77873e-05
1.25914e-05
-0.00709057
-0.00760522
-0.00904195
-0.0113447
-0.0111536
-0.00859852
-0.00551407
-0.00281024
-0.000935828
0.000271917
0.000946388
0.00128026
0.00139895
0.00139402
0.00132457
0.00122623
0.00111915
0.00101397
0.000915644
0.00082601
0.000745265
0.000672843
0.000607872
0.000549417
0.000496579
0.000448541
0.000404586
0.000364089
0.000326531
0.000291442
0.000258461
0.00022723
0.000197477
0.000168953
0.000141402
0.000114684
8.85652e-05
6.29312e-05
3.76225e-05
1.25333e-05
-0.00738578
-0.00821455
-0.0102746
-0.0135957
-0.0137593
-0.010515
-0.00663621
-0.00341892
-0.00124599
0.000108642
0.000840431
0.00119862
0.00133049
0.00133536
0.00127448
0.0011839
0.00108391
0.000985023
0.000892083
0.000806903
0.000729767
0.000660234
0.000597568
0.000540955
0.000489596
0.000442755
0.000399774
0.000360078
0.000323179
0.000288647
0.000256127
0.000225293
0.000195875
0.000167641
0.000140348
0.00011385
8.79391e-05
6.24925e-05
3.73646e-05
1.24495e-05
-0.00834149
-0.00896891
-0.0114349
-0.01625
-0.0174119
-0.0136569
-0.00840549
-0.00436208
-0.00174897
-0.000145156
0.000690153
0.00108583
0.00123553
0.00125403
0.00120572
0.00112664
0.00103675
0.000946455
0.000860643
0.000781283
0.000708853
0.000643111
0.000583497
0.000529345
0.00047998
0.000434762
0.000393111
0.000354514
0.000318527
0.00028476
0.000252881
0.000222596
0.000193644
0.000165815
0.000138878
0.000112691
8.70683e-05
6.18852e-05
3.70067e-05
1.23331e-05
-0.00860825
-0.0103631
-0.012773
-0.0187862
-0.0209462
-0.0166965
-0.0101179
-0.00533067
-0.00226238
-0.000429859
0.000513399
0.000946603
0.00111449
0.00114955
0.00111771
0.00105362
0.000976784
0.000897525
0.00082083
0.000748883
0.000682428
0.000621483
0.000565721
0.000514672
0.000467819
0.000424648
0.000384676
0.000347466
0.000312632
0.000279831
0.000248765
0.000219173
0.000190814
0.000163497
0.000137012
0.000111224
8.59645e-05
6.11165e-05
3.65528e-05
1.21817e-05
-0.00808664
-0.00933914
-0.01129
-0.017672
-0.0208918
-0.0175957
-0.0109634
-0.00584528
-0.00255785
-0.000595038
0.000386492
0.000821255
0.000989777
0.00103446
0.00101816
0.000970483
0.000908581
0.000841864
0.000775387
0.000711699
0.000651906
0.000596343
0.000544945
0.000497445
0.00045349
0.000412697
0.000374687
0.000339104
0.000305628
0.000273967
0.000243865
0.000215093
0.000187439
0.000160732
0.000134785
0.000109474
8.46481e-05
6.01997e-05
3.60119e-05
1.20018e-05
-0.00673665
-0.010639
-0.00888901
-0.0145836
-0.0180326
-0.0161929
-0.0105752
-0.00592344
-0.00278456
-0.000776019
0.000255291
0.000680543
0.000848094
0.000909626
0.000910921
0.000878668
0.000831463
0.000778197
0.000723303
0.000669181
0.000617108
0.000567739
0.000521323
0.000477856
0.000437184
0.000399081
0.000363291
0.000329552
0.000297616
0.000267251
0.000238247
0.000210412
0.000183565
0.000157557
0.000132226
0.000107464
8.31355e-05
5.91459e-05
3.53903e-05
1.1795e-05
-0.00734765
-0.00958558
-0.007884
-0.0115873
-0.0146704
-0.0135397
-0.00910555
-0.00526805
-0.00268567
-0.0010706
-0.000177791
0.000341199
0.000618664
0.000748727
0.000790232
0.000783166
0.000754434
0.000714804
0.000670429
0.000624849
0.000579941
0.000536618
0.000495276
0.000456041
0.000418896
0.000383733
0.000350397
0.000318714
0.000288507
0.000259603
0.000231841
0.000205069
0.000179138
0.000153927
0.000129299
0.000105164
8.14044e-05
5.79394e-05
3.46789e-05
1.15582e-05
-0.00597953
-0.00794539
-0.00736619
-0.00904972
-0.0107454
-0.0100011
-0.00716722
-0.00458969
-0.00252899
-0.00119611
-0.000630521
-0.000259167
0.000156437
0.000475114
0.000624167
0.000661331
0.000657932
0.000635793
0.00060586
0.000572365
0.000537141
0.000501443
0.000466146
0.000431776
0.000398597
0.0003667
0.000336075
0.000306658
0.000278358
0.000251069
0.000224683
0.000199091
0.00017418
0.00014986
0.000126017
0.000102583
7.94618e-05
5.65852e-05
3.38801e-05
1.12924e-05
-0.00448166
-0.00593937
-0.00605002
-0.00690087
-0.00790155
-0.00734583
-0.00562051
-0.00391094
-0.00235913
-0.0012542
-0.000798763
-0.000486165
-9.82979e-05
0.000220879
0.000414644
0.000518689
0.000560309
0.000566455
0.000551316
0.000526233
0.000497314
0.000467167
0.000436861
0.000406885
0.000377497
0.000348837
0.000320964
0.000293885
0.000267573
0.000241979
0.000217045
0.000192702
0.000168876
0.000145503
0.000122499
9.98164e-05
7.73778e-05
5.51317e-05
3.30224e-05
1.1007e-05
-0.00332967
-0.00452753
-0.00501433
-0.00548565
-0.00606605
-0.00565614
-0.0044114
-0.00313492
-0.00200644
-0.00118668
-0.000728152
-0.000377051
-4.51182e-06
0.000291981
0.00042335
0.000475646
0.000490647
0.000490344
0.000482596
0.000469039
0.00045078
0.000429131
0.000405403
0.000380611
0.000355413
0.000330206
0.000305213
0.000280559
0.000256304
0.000232466
0.000209039
0.000185997
0.000163301
0.000140921
0.000118797
9.69017e-05
7.51815e-05
5.35992e-05
3.2118e-05
1.07061e-05
-0.00250984
-0.00347535
-0.00402594
-0.00438429
-0.00467341
-0.0043937
-0.00356666
-0.00268859
-0.00185488
-0.00126099
-0.00108599
-0.000826879
-0.000263926
0.000220407
0.000426362
0.000472645
0.000472626
0.000462497
0.000448641
0.000432493
0.000414836
0.000395969
0.000375986
0.000355059
0.00033345
0.000311425
0.000289202
0.000266939
0.000244743
0.000222679
0.000200784
0.000179072
0.000157537
0.000136177
0.00011496
9.38796e-05
7.29029e-05
5.20087e-05
3.11793e-05
1.03938e-05
-0.00208604
-0.00274678
-0.00322663
-0.00352967
-0.00374844
-0.00357474
-0.0029574
-0.00224469
-0.00154923
-0.00104266
-0.000860321
-0.00071415
-0.000407717
-0.000111726
9.2304e-05
0.00021839
0.000293604
0.000336646
0.00035908
0.0003674
0.000365727
0.000357217
0.000344287
0.000328565
0.000311061
0.000292408
0.000273019
0.000253164
0.000233034
0.000212748
0.000192394
0.000172022
0.000151662
0.000131337
0.000111042
9.07908e-05
7.05728e-05
5.03818e-05
3.02188e-05
1.00742e-05
-0.00167986
-0.00217199
-0.00258749
-0.00283262
-0.00298962
-0.00289857
-0.00250072
-0.00202127
-0.00158554
-0.00121064
-0.000827121
-0.00046651
-0.000151031
7.16565e-05
0.000204571
0.000275936
0.00031275
0.000330286
0.000336793
0.000336933
0.000333024
0.000325923
0.000316002
0.000303687
0.000289466
0.000273789
0.000257032
0.00023948
0.000221356
0.000202816
0.000183985
0.000164944
0.000145754
0.000126465
0.000107094
8.76762e-05
6.82219e-05
4.87397e-05
2.92492e-05
9.75158e-06
-0.00139586
-0.00177259
-0.00210707
-0.00232137
-0.0024487
-0.0023953
-0.00211186
-0.00172269
-0.00132574
-0.00097456
-0.000725857
-0.000541178
-0.000357513
-0.000175588
-2.70782e-05
8.51968e-05
0.000166915
0.000223316
0.000259564
0.000280286
0.000289551
0.000290844
0.000286712
0.000278795
0.00026815
0.000255491
0.000241325
0.000226016
0.000209843
0.000193005
0.000175663
0.000157928
0.000139891
0.000121623
0.000103167
8.4576e-05
6.58806e-05
4.71038e-05
2.8283e-05
9.43003e-06
-0.00111528
-0.00141285
-0.00168737
-0.00187568
-0.00198937
-0.00197411
-0.00177792
-0.00150603
-0.00125497
-0.000994053
-0.000715504
-0.000474635
-0.000251133
-7.72814e-05
4.29438e-05
0.00012363
0.000177365
0.000212627
0.000235565
0.000250228
0.000258643
0.000261804
0.000260547
0.000255692
0.000247964
0.000237964
0.000226173
0.000212968
0.000198648
0.00018344
0.000167532
0.000151062
0.000134144
0.000116872
9.9311e-05
8.15291e-05
6.35783e-05
4.54944e-05
2.73322e-05
9.1136e-06
-0.000904238
-0.00115406
-0.00139158
-0.00155766
-0.00164697
-0.0016508
-0.00152999
-0.00132095
-0.00107418
-0.000831135
-0.000637504
-0.000469462
-0.000322379
-0.000188387
-7.44969e-05
1.78709e-05
9.05479e-05
0.00014507
0.000183523
0.000208869
0.000224317
0.000232462
0.000235122
0.000233562
0.000228703
0.000221233
0.000211681
0.000200457
0.000187889
0.000174228
0.000159687
0.000144427
0.000128583
0.00011227
9.55721e-05
7.8573e-05
6.13435e-05
4.39316e-05
2.64087e-05
8.80621e-06
-0.000705834
-0.000919221
-0.0011175
-0.00126781
-0.00136165
-0.00137972
-0.00129459
-0.00114157
-0.000970835
-0.000800658
-0.000626374
-0.000458814
-0.000301291
-0.000166066
-6.13932e-05
1.74991e-05
7.69728e-05
0.000121766
0.000155272
0.000179656
0.000196424
0.000206874
0.000212139
0.000213173
0.000210762
0.00020554
0.000198024
0.000188625
0.000177685
0.000165471
0.000152216
0.000138099
0.000123274
0.000107871
9.19951e-05
7.5743e-05
5.92029e-05
4.24342e-05
2.55236e-05
8.51157e-06
-0.000548681
-0.000741473
-0.000920849
-0.0010586
-0.00113891
-0.00116465
-0.00112211
-0.0010115
-0.000866305
-0.000709844
-0.00056285
-0.000429127
-0.000305399
-0.000197564
-0.0001052
-2.76865e-05
3.54157e-05
8.49187e-05
0.000122492
0.000150211
0.000169914
0.000183084
0.000190907
0.000194338
0.000194149
0.000190967
0.000185304
0.000177576
0.000168135
0.000157261
0.0001452
0.000132148
0.000118275
0.000103726
8.86217e-05
7.30725e-05
5.71819e-05
4.10199e-05
2.46875e-05
8.23321e-06
-0.000409661
-0.000584711
-0.000744409
-0.000871218
-0.000954146
-0.000989095
-0.000964884
-0.000882541
-0.000770952
-0.000652202
-0.000534296
-0.000418095
-0.000306814
-0.000205578
-0.000118764
-4.66945e-05
1.22391e-05
5.96306e-05
9.69299e-05
0.000125574
0.000146875
0.000161967
0.000171823
0.000177272
0.000179014
0.000177635
0.000173629
0.000167409
0.000159329
0.000149677
0.000138711
0.000126637
0.000113641
9.988e-05
8.54899e-05
7.05919e-05
5.53038e-05
3.97051e-05
2.391e-05
7.97436e-06
-0.000295519
-0.000461386
-0.000609812
-0.000729264
-0.000808376
-0.000848007
-0.000841791
-0.00078659
-0.000700034
-0.000601567
-0.000500217
-0.000399344
-0.000302099
-0.000212678
-0.000134179
-6.70091e-05
-1.04493e-05
3.62426e-05
7.39306e-05
0.000103638
0.000126399
0.000143164
0.000154777
0.000161977
0.000165407
0.000165616
0.000163081
0.000158206
0.000151344
0.000142791
0.000132812
0.000121622
0.000109421
9.63754e-05
8.26344e-05
6.83292e-05
5.35899e-05
3.8505e-05
2.32001e-05
7.73798e-06
-0.000199068
-0.000357445
-0.000496599
-0.000609736
-0.000688758
-0.000733823
-0.00074015
-0.000703059
-0.000635945
-0.000555802
-0.000471121
-0.000384661
-0.000299262
-0.000218909
-0.000146602
-8.33424e-05
-2.90388e-05
1.66782e-05
5.43642e-05
8.47469e-05
0.000108615
0.000126733
0.000139814
0.000148506
0.000153389
0.000154979
0.000153729
0.000150035
0.000144248
0.000136665
0.00012756
0.000117155
0.00010566
9.32493e-05
8.00864e-05
6.63092e-05
5.20593e-05
3.74331e-05
2.25659e-05
7.52673e-06
-0.000120102
-0.000274521
-0.000408997
-0.000517831
-0.000596153
-0.000644423
-0.000659219
-0.000636569
-0.000585707
-0.000520401
-0.000448542
-0.000373098
-0.000297016
-0.000224051
-0.000157043
-9.72297e-05
-4.49155e-05
-6.27431e-08
3.75959e-05
6.85308e-05
9.33224e-05
0.000112581
0.000126908
0.000136871
0.000143
0.000145775
0.000145631
0.000142955
0.000138096
0.000131353
0.000123004
0.000113278
0.000102394
9.05345e-05
7.78732e-05
6.45539e-05
5.07285e-05
3.65012e-05
2.20143e-05
7.34295e-06
-5.60711e-05
-0.000208622
-0.000339602
-0.000445647
-0.000523801
-0.000574668
-0.000595991
-0.000584537
-0.000546557
-0.000493075
-0.000431375
-0.00036479
-0.000296248
-0.000229202
-0.000166394
-0.000109287
-5.85086e-05
-1.42937e-05
2.33974e-05
5.48328e-05
8.04266e-05
0.000100663
0.000116049
0.00012709
0.000134271
0.000138046
0.000138834
0.000137016
0.000132936
0.000126899
0.000119184
0.000110028
9.96575e-05
8.82582e-05
7.6018e-05
6.30813e-05
4.96114e-05
3.57189e-05
2.15508e-05
7.18786e-06
-6.32793e-06
-0.000158426
-0.000287725
-0.000392367
-0.000470521
-0.000523115
-0.000549221
-0.000546347
-0.000518367
-0.000473994
-0.000420063
-0.000360242
-0.000297439
-0.000234844
-0.000175129
-0.000119947
-7.01837e-05
-2.62932e-05
1.1579e-05
4.35402e-05
6.98743e-05
9.09675e-05
0.000107258
0.000119202
0.000127255
0.000131851
0.000133399
0.000132276
0.000128825
0.000123357
0.000116148
0.000107449
9.74866e-05
8.64529e-05
7.45479e-05
6.19122e-05
4.8725e-05
3.50977e-05
2.11833e-05
7.06772e-06
2.99874e-05
-0.000123866
-0.000253222
-0.000357102
-0.000435062
-0.000488706
-0.000518327
-0.000522104
-0.000502017
-0.000464638
-0.000416205
-0.000360865
-0.000301746
-0.0002419
-0.000183959
-0.000129731
-8.03086e-05
-3.63129e-05
1.97641e-06
3.45537e-05
6.1613e-05
8.34761e-05
0.000100537
0.000113225
0.000121977
0.00012722
0.000129357
0.000128768
0.000125792
0.000120753
0.00011392
0.000105562
9.5899e-05
8.51329e-05
7.34763e-05
6.10555e-05
4.80762e-05
3.46417e-05
2.09123e-05
6.97732e-06
5.16787e-05
-0.000104397
-0.000235032
-0.000339141
-0.00041686
-0.000470789
-0.000501975
-0.000508902
-0.000492974
-0.000459596
-0.000414563
-0.00036197
-0.000305039
-0.000246787
-0.000189823
-0.000136055
-8.67192e-05
-4.25537e-05
-3.92499e-06
2.90924e-05
5.664e-05
7.9003e-05
9.65521e-05
0.000109702
0.000118882
0.000124516
0.000127005
0.000126733
0.000124037
0.000119249
0.000112633
0.000104473
9.49793e-05
8.43695e-05
7.28494e-05
6.05528e-05
4.76881e-05
3.43601e-05
2.07391e-05
6.91521e-06
)
;

boundaryField
{
    inlet
    {
        type            zeroGradient;
    }
    outlet
    {
        type            fixedValue;
        value           uniform 0;
    }
    lowerWall
    {
        type            zeroGradient;
    }
    upperWall
    {
        type            zeroGradient;
    }
    defaultFaces
    {
        type            empty;
    }
}


// ************************************************************************* //
