/*--------------------------------*- C++ -*----------------------------------*\
| =========                 |                                                 |
| \\      /  F ield         | OpenFOAM: The Open Source CFD Toolbox           |
|  \\    /   O peration     | Version:  2112                                  |
|   \\  /    A nd           | Website:  www.openfoam.com                      |
|    \\/     M anipulation  |                                                 |
\*---------------------------------------------------------------------------*/
FoamFile
{
    version     2.0;
    format      ascii;
    arch        "LSB;label=32;scalar=64";
    class       surfaceScalarField;
    location    "0.11";
    object      phi;
}
// * * * * * * * * * * * * * * * * * * * * * * * * * * * * * * * * * * * * * //

dimensions      [0 3 -1 0 0 0 0];

oriented        oriented;

internalField   nonuniform List<scalar> 
3653
(
9.93032e-07
6.96825e-09
9.78953e-07
1.40785e-08
9.64018e-07
1.49357e-08
9.49524e-07
1.44941e-08
9.33971e-07
1.55524e-08
9.17025e-07
1.69459e-08
8.99071e-07
1.79538e-08
8.80673e-07
1.83986e-08
8.63463e-07
1.72102e-08
8.4928e-07
1.41829e-08
8.38609e-07
1.06704e-08
8.30782e-07
7.82711e-09
8.24881e-07
5.9018e-09
8.20249e-07
4.6311e-09
8.16117e-07
4.13212e-09
8.12299e-07
3.81861e-09
8.07778e-07
4.52038e-09
8.03553e-07
4.22498e-09
7.97062e-07
6.49122e-09
7.9203e-07
5.03203e-09
7.81723e-07
1.03071e-08
7.75311e-07
6.41167e-09
7.59115e-07
1.61966e-08
7.49008e-07
1.0107e-08
7.24521e-07
2.44867e-08
7.05216e-07
1.93052e-08
6.65738e-07
3.94782e-08
6.24606e-07
4.11315e-08
5.51156e-07
7.34502e-08
1.10129e-07
4.41027e-07
1.00289e-06
4.07448e-09
1.00665e-06
1.03266e-08
1.00894e-06
1.26414e-08
1.01034e-06
1.30984e-08
1.01164e-06
1.42435e-08
1.01277e-06
1.58234e-08
1.0135e-06
1.7216e-08
1.01376e-06
1.81411e-08
1.01318e-06
1.77972e-08
1.01152e-06
1.58378e-08
1.00906e-06
1.31314e-08
1.0062e-06
1.06841e-08
1.00315e-06
8.94998e-09
9.99947e-07
7.83873e-09
9.96559e-07
7.51995e-09
9.92876e-07
7.50168e-09
9.88824e-07
8.57251e-09
9.84193e-07
8.85576e-09
9.7881e-07
1.18737e-08
9.72669e-07
1.11734e-08
9.64731e-07
1.82449e-08
9.56632e-07
1.45112e-08
9.44013e-07
2.8815e-08
9.32797e-07
2.13235e-08
9.13511e-07
4.37721e-08
8.93947e-07
3.88695e-08
8.67889e-07
6.55363e-08
8.31427e-07
7.75929e-08
7.94542e-07
1.10336e-07
1.4514e-07
7.59531e-07
1.00166e-06
2.41371e-09
1.00505e-06
6.9399e-09
1.00787e-06
9.81985e-09
1.00989e-06
1.10814e-08
1.01201e-06
1.21172e-08
1.01443e-06
1.34073e-08
1.01686e-06
1.47846e-08
1.01906e-06
1.5944e-08
1.0205e-06
1.63579e-08
1.02064e-06
1.56972e-08
1.01947e-06
1.43023e-08
1.01737e-06
1.27758e-08
1.01473e-06
1.15902e-08
1.01175e-06
1.08235e-08
1.00854e-06
1.07329e-08
1.00508e-06
1.09578e-08
1.00142e-06
1.22327e-08
9.97156e-07
1.31197e-08
9.92728e-07
1.63017e-08
9.86867e-07
1.70338e-08
9.81187e-07
2.39258e-08
9.72904e-07
2.27935e-08
9.64676e-07
3.70433e-08
9.53736e-07
3.22636e-08
9.40362e-07
5.7146e-08
9.26746e-07
5.24852e-08
9.0704e-07
8.52422e-08
8.90073e-07
9.45599e-08
8.68127e-07
1.32282e-07
1.66276e-07
8.46991e-07
1.00075e-06
1.66446e-09
1.00265e-06
5.04164e-09
1.00473e-06
7.73767e-09
1.00649e-06
9.32527e-09
1.00826e-06
1.03463e-08
1.01025e-06
1.14108e-08
1.01235e-06
1.26884e-08
1.01431e-06
1.39829e-08
1.01578e-06
1.48893e-08
1.0164e-06
1.50748e-08
1.0161e-06
1.46046e-08
1.01504e-06
1.38378e-08
1.01343e-06
1.31991e-08
1.01139e-06
1.28595e-08
1.00902e-06
1.31065e-08
1.00628e-06
1.36959e-08
1.00325e-06
1.52595e-08
9.99685e-07
1.66883e-08
9.95844e-07
2.01429e-08
9.9096e-07
2.19184e-08
9.8611e-07
2.87752e-08
9.79059e-07
2.98447e-08
9.73139e-07
4.29635e-08
9.62787e-07
4.2615e-08
9.55841e-07
6.40922e-08
9.42032e-07
6.62947e-08
9.33882e-07
9.33918e-08
9.20019e-07
1.08423e-07
9.12247e-07
1.40054e-07
1.69326e-07
9.09198e-07
1.00036e-06
1.30265e-09
1.00162e-06
3.788e-09
1.00326e-06
6.09208e-09
1.00483e-06
7.76089e-09
1.00638e-06
8.79165e-09
1.00809e-06
9.70371e-09
1.00991e-06
1.08638e-08
1.01169e-06
1.22036e-08
1.01318e-06
1.33974e-08
1.01412e-06
1.4136e-08
1.01437e-06
1.43568e-08
1.01395e-06
1.42588e-08
1.01298e-06
1.41682e-08
1.01154e-06
1.42948e-08
1.00977e-06
1.48819e-08
1.00759e-06
1.58751e-08
1.0052e-06
1.76479e-08
1.00221e-06
1.96758e-08
9.99217e-07
2.31397e-08
9.95085e-07
2.60504e-08
9.91464e-07
3.2396e-08
9.857e-07
3.56083e-08
9.81574e-07
4.70893e-08
9.73854e-07
5.03354e-08
9.69583e-07
6.8363e-08
9.60491e-07
7.53867e-08
9.57183e-07
9.66998e-08
9.48589e-07
1.17017e-07
9.50717e-07
1.37927e-07
1.74046e-07
9.45996e-07
1.0003e-06
1.00282e-09
1.00118e-06
2.90697e-09
1.00245e-06
4.82489e-09
1.00381e-06
6.39703e-09
1.00519e-06
7.40982e-09
1.00666e-06
8.23284e-09
1.00824e-06
9.28697e-09
1.00983e-06
1.06165e-08
1.01126e-06
1.19701e-08
1.01233e-06
1.30587e-08
1.01293e-06
1.37589e-08
1.01301e-06
1.41778e-08
1.01263e-06
1.45551e-08
1.01181e-06
1.51092e-08
1.01066e-06
1.6032e-08
1.00913e-06
1.7405e-08
1.00739e-06
1.93922e-08
1.00516e-06
2.19031e-08
1.00292e-06
2.53804e-08
9.99835e-07
2.9134e-08
9.97264e-07
3.4967e-08
9.93039e-07
3.98337e-08
9.90571e-07
4.95574e-08
9.85116e-07
5.57895e-08
9.83284e-07
7.01951e-08
9.77987e-07
8.06841e-08
9.76677e-07
9.80095e-08
9.76207e-07
1.17487e-07
9.76092e-07
1.38041e-07
1.63865e-07
9.86274e-07
1.00021e-06
7.89374e-10
1.00087e-06
2.24552e-09
1.00189e-06
3.80899e-09
1.00309e-06
5.20273e-09
1.00435e-06
6.14166e-09
1.00572e-06
6.86146e-09
1.00722e-06
7.78869e-09
1.00878e-06
9.06212e-09
1.01025e-06
1.05006e-08
1.01148e-06
1.18288e-08
1.01235e-06
1.28828e-08
1.01282e-06
1.37108e-08
1.01289e-06
1.44821e-08
1.01259e-06
1.54146e-08
1.01198e-06
1.66374e-08
1.01104e-06
1.83429e-08
1.00994e-06
2.05012e-08
1.00844e-06
2.33936e-08
1.00699e-06
2.68318e-08
1.00494e-06
3.11827e-08
1.00339e-06
3.65223e-08
1.00076e-06
4.24651e-08
9.99624e-07
5.06917e-08
9.96561e-07
5.88519e-08
9.9672e-07
7.00363e-08
9.9425e-07
8.31536e-08
9.96717e-07
9.55427e-08
9.97376e-07
1.16828e-07
1.0048e-06
1.30619e-07
1.57702e-07
1.01096e-06
1.00018e-06
6.09371e-10
1.00073e-06
1.69185e-09
1.00163e-06
2.91486e-09
1.00273e-06
4.10346e-09
1.00393e-06
4.93781e-09
1.00524e-06
5.55117e-09
1.00668e-06
6.34609e-09
1.00822e-06
7.52836e-09
1.00973e-06
8.9834e-09
1.01111e-06
1.04575e-08
1.01223e-06
1.17631e-08
1.01303e-06
1.29093e-08
1.0135e-06
1.40052e-08
1.01366e-06
1.52546e-08
1.01357e-06
1.67325e-08
1.01321e-06
1.87066e-08
1.01271e-06
2.09963e-08
1.01195e-06
2.41518e-08
1.01127e-06
2.75187e-08
1.01022e-06
3.22316e-08
1.00964e-06
3.70972e-08
1.00844e-06
4.36654e-08
1.00851e-06
5.06207e-08
1.00758e-06
5.97862e-08
1.00893e-06
6.86866e-08
1.00975e-06
8.23345e-08
1.01267e-06
9.26168e-08
1.01828e-06
1.11218e-07
1.0242e-06
1.24697e-07
1.45535e-07
1.03637e-06
1.00017e-06
4.435e-10
1.00067e-06
1.18814e-09
1.00149e-06
2.0914e-09
1.00254e-06
3.05481e-09
1.00372e-06
3.75974e-09
1.00502e-06
4.25108e-09
1.00647e-06
4.89711e-09
1.00804e-06
5.95593e-09
1.00965e-06
7.37667e-09
1.01117e-06
8.93105e-09
1.01252e-06
1.04154e-08
1.01362e-06
1.18075e-08
1.01446e-06
1.31674e-08
1.01504e-06
1.46769e-08
1.01541e-06
1.63641e-08
1.01558e-06
1.85381e-08
1.01566e-06
2.09174e-08
1.01559e-06
2.42184e-08
1.01561e-06
2.74953e-08
1.0155e-06
3.23426e-08
1.01581e-06
3.67885e-08
1.0159e-06
4.35748e-08
1.01706e-06
4.9459e-08
1.01781e-06
5.90383e-08
1.02056e-06
6.59354e-08
1.02317e-06
7.97301e-08
1.02823e-06
8.75497e-08
1.03461e-06
1.04839e-07
1.04382e-06
1.15492e-07
1.34055e-07
1.0553e-06
1.00016e-06
2.80629e-10
1.00065e-06
6.99331e-10
1.00146e-06
1.28295e-09
1.00251e-06
2.00402e-09
1.00371e-06
2.55895e-09
1.00505e-06
2.91732e-09
1.00654e-06
3.40376e-09
1.00818e-06
4.31494e-09
1.0099e-06
5.66049e-09
1.01159e-06
7.24143e-09
1.01315e-06
8.848e-09
1.01453e-06
1.04314e-08
1.01569e-06
1.20064e-08
1.01664e-06
1.37242e-08
1.01743e-06
1.55759e-08
1.01808e-06
1.78849e-08
1.01869e-06
2.03144e-08
1.01925e-06
2.36546e-08
1.01993e-06
2.68209e-08
1.02066e-06
3.16115e-08
1.02176e-06
3.56871e-08
1.02298e-06
4.23559e-08
1.02503e-06
4.74021e-08
1.02728e-06
5.67895e-08
1.03091e-06
6.23116e-08
1.03538e-06
7.52597e-08
1.04117e-06
8.17541e-08
1.04938e-06
9.66299e-08
1.05888e-06
1.05989e-07
1.21588e-07
1.07135e-06
1.00017e-06
1.1084e-10
1.00068e-06
1.91944e-10
1.00152e-06
4.44957e-10
1.00261e-06
9.05153e-10
1.00388e-06
1.29777e-09
1.00528e-06
1.51591e-09
1.00685e-06
1.83393e-09
1.00859e-06
2.57444e-09
1.01044e-06
3.81102e-09
1.0123e-06
5.38002e-09
1.01407e-06
7.0709e-09
1.0157e-06
8.80629e-09
1.01715e-06
1.05581e-08
1.01843e-06
1.24421e-08
1.01959e-06
1.44201e-08
1.02067e-06
1.68055e-08
1.02173e-06
1.92454e-08
1.02286e-06
2.25327e-08
1.02411e-06
2.5564e-08
1.02557e-06
3.015e-08
1.02738e-06
3.38827e-08
1.02954e-06
4.01976e-08
1.03239e-06
4.45463e-08
1.03578e-06
5.33981e-08
1.04028e-06
5.78187e-08
1.04588e-06
6.96537e-08
1.05268e-06
7.49576e-08
1.06152e-06
8.7788e-08
1.0719e-06
9.5609e-08
1.08601e-07
1.08489e-06
1.00019e-06
-7.60438e-11
1.00074e-06
-3.59063e-10
1.00165e-06
-4.63793e-10
1.00283e-06
-2.78666e-10
1.00419e-06
-5.92249e-11
1.0057e-06
7.77185e-12
1.00738e-06
1.47459e-10
1.00925e-06
7.05093e-10
1.01125e-06
1.80942e-09
1.01329e-06
3.34003e-09
1.01527e-06
5.09221e-09
1.01712e-06
6.95977e-09
1.01881e-06
8.86642e-09
1.02037e-06
1.08858e-08
1.02183e-06
1.29568e-08
1.02327e-06
1.53666e-08
1.02474e-06
1.77778e-08
1.02634e-06
2.09337e-08
1.0281e-06
2.38027e-08
1.03018e-06
2.80676e-08
1.03258e-06
3.14769e-08
1.03553e-06
3.72549e-08
1.03903e-06
4.10407e-08
1.04336e-06
4.90682e-08
1.04849e-06
5.26881e-08
1.05501e-06
6.31383e-08
1.06238e-06
6.75824e-08
1.0718e-06
7.83743e-08
1.08257e-06
8.48385e-08
9.58194e-08
1.09535e-06
1.00022e-06
-2.91275e-10
1.00086e-06
-1.00463e-09
1.00191e-06
-1.51088e-09
1.00324e-06
-1.61134e-09
1.00473e-06
-1.55043e-09
1.00636e-06
-1.62089e-09
1.00818e-06
-1.67176e-09
1.0102e-06
-1.31377e-09
1.01235e-06
-3.39901e-10
1.01455e-06
1.1355e-09
1.0167e-06
2.94311e-09
1.01873e-06
4.93337e-09
1.02061e-06
6.97975e-09
1.02239e-06
9.11218e-09
1.0241e-06
1.12473e-08
1.02583e-06
1.36368e-08
1.02763e-06
1.59801e-08
1.02962e-06
1.89408e-08
1.03181e-06
2.16144e-08
1.0344e-06
2.54753e-08
1.03732e-06
2.8559e-08
1.04089e-06
3.36853e-08
1.04494e-06
3.69869e-08
1.04998e-06
4.40277e-08
1.05563e-06
4.7038e-08
1.06275e-06
5.60194e-08
1.0706e-06
5.97343e-08
1.08033e-06
6.86437e-08
1.0912e-06
7.39645e-08
8.28779e-08
1.10414e-06
1.00025e-06
-5.43963e-10
1.00101e-06
-1.76053e-09
1.00222e-06
-2.72491e-09
1.00373e-06
-3.12017e-09
1.0054e-06
-3.21758e-09
1.00722e-06
-3.43856e-09
1.00923e-06
-3.68797e-09
1.01145e-06
-3.53535e-09
1.01383e-06
-2.718e-09
1.01623e-06
-1.26467e-09
1.01854e-06
6.34831e-10
1.02068e-06
2.794e-09
1.02267e-06
4.99438e-09
1.02455e-06
7.22283e-09
1.02641e-06
9.38967e-09
1.02834e-06
1.17127e-08
1.03038e-06
1.39415e-08
1.03267e-06
1.66476e-08
1.0352e-06
1.90838e-08
1.03819e-06
2.24807e-08
1.04153e-06
2.52194e-08
1.04559e-06
2.96297e-08
1.05009e-06
3.24838e-08
1.05566e-06
3.84622e-08
1.06171e-06
4.09849e-08
1.06925e-06
4.84817e-08
1.07742e-06
5.15629e-08
1.08728e-06
5.87828e-08
1.0982e-06
6.30429e-08
7.0252e-08
1.11083e-06
1.00036e-06
-9.01976e-10
1.00138e-06
-2.78164e-09
1.0029e-06
-4.24538e-09
1.00466e-06
-4.87563e-09
1.00653e-06
-5.09696e-09
1.00857e-06
-5.4743e-09
1.0108e-06
-5.92231e-09
1.01323e-06
-5.95757e-09
1.01575e-06
-5.23797e-09
1.01822e-06
-3.73595e-09
1.02052e-06
-1.67163e-09
1.02266e-06
6.62385e-10
1.02466e-06
2.98545e-09
1.02662e-06
5.27008e-09
1.02858e-06
7.42839e-09
1.03065e-06
9.64395e-09
1.03287e-06
1.17166e-08
1.0354e-06
1.41213e-08
1.0382e-06
1.62792e-08
1.04151e-06
1.91723e-08
1.04519e-06
2.15376e-08
1.04962e-06
2.52052e-08
1.05449e-06
2.76168e-08
1.06042e-06
3.25286e-08
1.06679e-06
3.46117e-08
1.07459e-06
4.06802e-08
1.08298e-06
4.31803e-08
1.09288e-06
4.88781e-08
1.1037e-06
5.22212e-08
5.78423e-08
1.11611e-06
1.00043e-06
-1.32842e-09
1.00184e-06
-4.19146e-09
1.00378e-06
-6.18561e-09
1.00581e-06
-6.90685e-09
1.00795e-06
-7.24051e-09
1.01031e-06
-7.83331e-09
1.01288e-06
-8.49107e-09
1.01561e-06
-8.68452e-09
1.01837e-06
-8.00172e-09
1.02098e-06
-6.34844e-09
1.02332e-06
-4.01017e-09
1.0254e-06
-1.41776e-09
1.02728e-06
1.11104e-09
1.02907e-06
3.47444e-09
1.03091e-06
5.58704e-09
1.03294e-06
7.61763e-09
1.0352e-06
9.45035e-09
1.03785e-06
1.14811e-08
1.04082e-06
1.32999e-08
1.04435e-06
1.56459e-08
1.04829e-06
1.76023e-08
1.05298e-06
2.05127e-08
1.05812e-06
2.24756e-08
1.06431e-06
2.63398e-08
1.07092e-06
2.79967e-08
1.07888e-06
3.27243e-08
1.0874e-06
3.46621e-08
1.09726e-06
3.9016e-08
1.10796e-06
4.15176e-08
4.57721e-08
1.12003e-06
1.00082e-06
-2.14688e-09
1.0029e-06
-6.27097e-09
1.00531e-06
-8.60138e-09
1.00759e-06
-9.18324e-09
1.01002e-06
-9.67299e-09
1.01277e-06
-1.05805e-08
1.01573e-06
-1.14541e-08
1.01878e-06
-1.1735e-08
1.02169e-06
-1.09061e-08
1.02417e-06
-8.8276e-09
1.02615e-06
-5.99245e-09
1.02778e-06
-3.05343e-09
1.02928e-06
-3.84267e-10
1.03088e-06
1.87093e-09
1.03265e-06
3.81699e-09
1.0347e-06
5.57394e-09
1.03704e-06
7.10869e-09
1.0398e-06
8.72303e-09
1.04293e-06
1.01706e-08
1.04663e-06
1.19415e-08
1.05076e-06
1.34734e-08
1.05566e-06
1.56146e-08
1.061e-06
1.71382e-08
1.06736e-06
1.99725e-08
1.07415e-06
2.12137e-08
1.08219e-06
2.46804e-08
1.09078e-06
2.6075e-08
1.10058e-06
2.92125e-08
1.11113e-06
3.09688e-08
3.39995e-08
1.1229e-06
1.00175e-06
-3.89495e-09
1.00534e-06
-9.8592e-09
1.00852e-06
-1.17888e-08
1.01112e-06
-1.17761e-08
1.01398e-06
-1.25327e-08
1.01721e-06
-1.38177e-08
1.02057e-06
-1.48139e-08
1.02393e-06
-1.5092e-08
1.02691e-06
-1.38903e-08
1.02908e-06
-1.09957e-08
1.03044e-06
-7.35344e-09
1.03139e-06
-3.99791e-09
1.0323e-06
-1.30103e-09
1.03332e-06
8.52027e-10
1.03462e-06
2.52169e-09
1.03634e-06
3.85524e-09
1.03851e-06
4.93906e-09
1.04121e-06
6.01623e-09
1.04438e-06
7.00087e-09
1.04818e-06
8.14423e-09
1.05244e-06
9.21554e-09
1.05749e-06
1.05633e-08
1.06296e-06
1.16649e-08
1.06949e-06
1.34478e-08
1.07636e-06
1.43383e-08
1.0845e-06
1.65483e-08
1.09309e-06
1.7476e-08
1.10288e-06
1.94241e-08
1.1133e-06
2.05546e-08
2.24716e-08
1.12483e-06
1.00298e-06
-6.87112e-09
1.00695e-06
-1.38316e-08
1.00965e-06
-1.44904e-08
1.01168e-06
-1.38041e-08
1.0138e-06
-1.46585e-08
1.01587e-06
-1.58876e-08
1.01772e-06
-1.6656e-08
1.01937e-06
-1.67429e-08
1.02061e-06
-1.51336e-08
1.0213e-06
-1.16813e-08
1.02168e-06
-7.73674e-09
1.02214e-06
-4.46248e-09
1.02289e-06
-2.04383e-09
1.02402e-06
-2.79641e-10
1.02561e-06
9.31949e-10
1.02767e-06
1.79438e-09
1.03019e-06
2.42136e-09
1.03321e-06
2.99696e-09
1.0367e-06
3.50391e-09
1.04078e-06
4.06976e-09
1.04539e-06
4.60671e-09
1.05071e-06
5.24371e-09
1.05655e-06
5.81708e-09
1.06337e-06
6.62647e-09
1.07059e-06
7.11835e-09
1.07903e-06
8.11199e-09
1.0879e-06
8.61105e-09
1.09788e-06
9.44236e-09
1.10844e-06
9.99626e-09
1.06263e-08
1.12028e-06
9.93129e-07
9.79297e-07
9.64807e-07
9.51003e-07
9.36344e-07
9.20457e-07
9.03801e-07
8.87058e-07
8.71924e-07
8.60243e-07
8.52506e-07
8.48044e-07
8.46e-07
8.4572e-07
8.46652e-07
8.48446e-07
8.50868e-07
8.53865e-07
8.57369e-07
8.61438e-07
8.66045e-07
8.71289e-07
8.77106e-07
8.83732e-07
8.90851e-07
8.98963e-07
9.07574e-07
9.17016e-07
9.27012e-07
9.37639e-07
5.53115e-07
-1.12088e-07
5.80414e-07
-2.7299e-08
6.81357e-07
-1.00943e-07
7.28456e-07
-4.70987e-08
6.62298e-07
6.61579e-08
8.14558e-07
-1.5226e-07
8.67001e-07
-5.24428e-08
7.10101e-07
1.56899e-07
8.83091e-07
-1.72989e-07
-2.63418e-07
1.14651e-06
7.80655e-07
-1.33213e-07
8.53807e-07
-1.00451e-07
8.47986e-07
-9.51214e-08
8.63495e-07
-6.26085e-08
9.24317e-07
5.3361e-09
9.70618e-07
-1.98561e-07
9.8533e-07
-6.71551e-08
9.71818e-07
1.70411e-07
1.09277e-06
-2.9394e-07
-4.02527e-07
1.23188e-06
8.64347e-07
-1.50568e-07
8.74137e-07
-1.10241e-07
8.79479e-07
-1.00463e-07
9.23692e-07
-1.06822e-07
9.68588e-07
-3.95596e-08
9.22571e-07
-1.52543e-07
9.76336e-07
-1.20921e-07
1.12965e-06
1.70936e-08
1.11911e-06
-2.83398e-07
-3.78614e-07
1.0952e-06
9.07876e-07
-1.49247e-07
9.30527e-07
-1.32891e-07
9.39501e-07
-1.09438e-07
9.51831e-07
-1.19152e-07
9.90382e-07
-7.81106e-08
9.8481e-07
-1.46972e-07
9.95082e-07
-1.31192e-07
1.10287e-06
-9.06942e-08
1.0885e-06
-2.69027e-07
-3.39987e-07
1.04987e-06
9.53061e-07
-1.56312e-07
9.58537e-07
-1.38367e-07
9.62837e-07
-1.13737e-07
9.78808e-07
-1.35123e-07
1.00001e-06
-9.93084e-08
1.00611e-06
-1.53075e-07
1.02688e-06
-1.51959e-07
1.07685e-06
-1.40665e-07
1.0647e-06
-2.56878e-07
-3.41138e-07
1.06585e-06
9.83167e-07
-1.53205e-07
9.85853e-07
-1.41053e-07
9.98959e-07
-1.26844e-07
1.00312e-06
-1.39284e-07
1.02169e-06
-1.1788e-07
1.0227e-06
-1.54082e-07
1.03305e-06
-1.62308e-07
1.07253e-06
-1.80151e-07
1.06355e-06
-2.47898e-07
-3.12985e-07
1.0354e-06
1.00917e-06
-1.51411e-07
1.0125e-06
-1.44386e-07
1.0141e-06
-1.2844e-07
1.01691e-06
-1.42096e-07
1.02979e-06
-1.30765e-07
1.03396e-06
-1.58244e-07
1.03972e-06
-1.68073e-07
1.05184e-06
-1.92267e-07
1.04767e-06
-2.43727e-07
-3.02236e-07
1.03692e-06
1.03309e-06
-1.48134e-07
1.02887e-06
-1.40165e-07
1.034e-06
-1.33571e-07
1.03328e-06
-1.4137e-07
1.03956e-06
-1.37052e-07
1.03892e-06
-1.57599e-07
1.04203e-06
-1.71183e-07
1.04761e-06
-1.97852e-07
1.03618e-06
-2.32292e-07
-2.81488e-07
1.01543e-06
1.04882e-06
-1.41659e-07
1.04681e-06
-1.3815e-07
1.04451e-06
-1.31271e-07
1.04153e-06
-1.38391e-07
1.04373e-06
-1.3925e-07
1.04189e-06
-1.55763e-07
1.03867e-06
-1.67961e-07
1.03522e-06
-1.94403e-07
1.02567e-06
-2.22743e-07
-2.63929e-07
1.00811e-06
1.06511e-06
-1.35417e-07
1.05808e-06
-1.31121e-07
1.05515e-06
-1.28344e-07
1.05034e-06
-1.33578e-07
1.04755e-06
-1.36458e-07
1.04199e-06
-1.50208e-07
1.03702e-06
-1.62992e-07
1.02895e-06
-1.86328e-07
1.01483e-06
-2.08627e-07
-2.42981e-07
9.93887e-07
1.07568e-06
-1.26204e-07
1.0685e-06
-1.23941e-07
1.06199e-06
-1.21836e-07
1.05473e-06
-1.26323e-07
1.04884e-06
-1.30567e-07
1.04142e-06
-1.42791e-07
1.03222e-06
-1.53785e-07
1.02053e-06
-1.74645e-07
1.00552e-06
-1.93617e-07
-2.22179e-07
9.84722e-07
1.08557e-06
-1.16424e-07
1.07587e-06
-1.14245e-07
1.06758e-06
-1.13545e-07
1.05865e-06
-1.17395e-07
1.04995e-06
-1.21867e-07
1.03961e-06
-1.32442e-07
1.02866e-06
-1.42842e-07
1.01439e-06
-1.60372e-07
9.97078e-07
-1.76306e-07
-1.99915e-07
9.74814e-07
1.09253e-06
-1.04815e-07
1.08174e-06
-1.03447e-07
1.07148e-06
-1.03288e-07
1.06068e-06
-1.06593e-07
1.04979e-06
-1.10981e-07
1.03773e-06
-1.20383e-07
1.02423e-06
-1.29337e-07
1.00813e-06
-1.44273e-07
9.89626e-07
-1.57803e-07
-1.77323e-07
9.67035e-07
1.09826e-06
-9.22422e-08
1.08603e-06
-9.12261e-08
1.07426e-06
-9.15084e-08
1.06201e-06
-9.43432e-08
1.04945e-06
-9.84211e-08
1.03548e-06
-1.06416e-07
1.02055e-06
-1.1441e-07
1.003e-06
-1.26726e-07
9.83274e-07
-1.38074e-07
-1.54021e-07
9.59971e-07
1.10242e-06
-7.85475e-08
1.08913e-06
-7.79355e-08
1.07605e-06
-7.84356e-08
1.06253e-06
-8.08173e-08
1.04853e-06
-8.44216e-08
1.03335e-06
-9.12415e-08
1.01696e-06
-9.80183e-08
9.98387e-07
-1.0815e-07
9.77837e-07
-1.17524e-07
-1.30422e-07
9.54239e-07
1.10551e-06
-6.40257e-08
1.09125e-06
-6.36755e-08
1.07714e-06
-6.4322e-08
1.06259e-06
-6.62684e-08
1.04757e-06
-6.94058e-08
1.03129e-06
-7.49619e-08
1.01396e-06
-8.06864e-08
9.94561e-07
-8.87489e-08
9.73363e-07
-9.63257e-08
-1.0649e-07
9.49431e-07
1.10769e-06
-4.88139e-08
1.09265e-06
-4.86322e-08
1.0777e-06
-4.93734e-08
1.06235e-06
-5.09256e-08
1.04649e-06
-5.35444e-08
1.02944e-06
-5.79055e-08
1.0113e-06
-6.25442e-08
9.91272e-07
-6.87256e-08
9.69563e-07
-7.46171e-08
-8.22814e-08
9.45354e-07
1.10895e-06
-3.29435e-08
1.09317e-06
-3.285e-08
1.07744e-06
-3.36426e-08
1.06132e-06
-3.48013e-08
1.04471e-06
-3.69417e-08
1.02678e-06
-3.99715e-08
1.00785e-06
-4.36145e-08
9.87e-07
-4.7875e-08
9.64617e-07
-5.22332e-08
-5.73844e-08
9.39719e-07
1.10223e-06
-1.48882e-08
1.08456e-06
-1.51827e-08
1.06694e-06
-1.60223e-08
1.04908e-06
-1.69409e-08
1.03058e-06
-1.84418e-08
1.01075e-06
-2.01384e-08
9.89721e-07
-2.25904e-08
9.66781e-07
-2.49351e-08
9.42147e-07
-2.75989e-08
-3.0194e-08
9.14957e-07
9.22751e-07
9.07568e-07
8.91546e-07
8.74605e-07
8.56163e-07
8.36024e-07
8.13434e-07
7.88499e-07
7.609e-07
7.30706e-07
-1.39427e-07
1.39427e-07
-2.97492e-07
1.58065e-07
-4.94528e-07
1.97037e-07
-6.21681e-07
1.27153e-07
-5.67869e-07
-5.38121e-08
-4.25172e-07
-1.42697e-07
-2.5527e-07
-1.69902e-07
-9.09217e-08
-1.64348e-07
4.73736e-08
-1.38295e-07
1.62196e-07
-1.14822e-07
2.52935e-07
-9.07392e-08
3.22206e-07
-6.92708e-08
3.73365e-07
-5.11594e-08
4.1005e-07
-3.66853e-08
4.35763e-07
-2.57126e-08
4.53548e-07
-1.77856e-08
4.65826e-07
-1.22776e-08
4.74372e-07
-8.54641e-09
4.80423e-07
-6.05097e-09
4.84805e-07
-4.38174e-09
4.88057e-07
-3.25234e-09
4.9053e-07
-2.47248e-09
4.9245e-07
-1.91958e-09
4.93966e-07
-1.51662e-09
4.95181e-07
-1.21535e-09
4.96166e-07
-9.84931e-10
4.96972e-07
-8.05627e-10
4.97635e-07
-6.62786e-10
4.98186e-07
-5.50895e-10
4.98642e-07
-4.55898e-10
4.9903e-07
-3.88176e-10
4.99348e-07
-3.18269e-10
4.99632e-07
-2.838e-10
4.99861e-07
-2.28717e-10
5.00076e-07
-2.15161e-10
5.00253e-07
-1.76774e-10
5.00424e-07
-1.71429e-10
5.00574e-07
-1.50161e-10
5.00724e-07
-1.50217e-10
-1.49874e-10
-1.81558e-07
3.20984e-07
-3.68927e-07
3.45434e-07
-5.5279e-07
3.80899e-07
-6.73714e-07
2.48077e-07
-6.07832e-07
-1.19694e-07
-4.32616e-07
-3.17913e-07
-2.29772e-07
-3.72746e-07
-4.99364e-08
-3.44184e-07
1.03886e-07
-2.92118e-07
2.30207e-07
-2.41143e-07
3.33527e-07
-1.94059e-07
4.16836e-07
-1.5258e-07
4.82798e-07
-1.17121e-07
5.34044e-07
-8.79314e-08
5.73246e-07
-6.49147e-08
6.02953e-07
-4.74922e-08
6.25408e-07
-3.47325e-08
6.42449e-07
-2.55874e-08
6.55492e-07
-1.90947e-08
6.65589e-07
-1.44784e-08
6.735e-07
-1.11634e-08
6.79773e-07
-8.74526e-09
6.84801e-07
-6.94798e-09
6.88871e-07
-5.58611e-09
6.92191e-07
-4.53566e-09
6.94918e-07
-3.71206e-09
6.97172e-07
-3.05907e-09
6.9904e-07
-2.53164e-09
7.00601e-07
-2.1116e-09
7.019e-07
-1.7553e-09
7.03002e-07
-1.48954e-09
7.03914e-07
-1.23023e-09
7.04706e-07
-1.07583e-09
7.05355e-07
-8.78107e-10
7.05933e-07
-7.92443e-10
7.06409e-07
-6.52781e-10
7.06841e-07
-6.03422e-10
7.072e-07
-5.0925e-10
7.07541e-07
-4.91325e-10
-4.37009e-10
-1.71486e-07
4.9247e-07
-3.52367e-07
5.26316e-07
-5.46987e-07
5.75519e-07
-6.54769e-07
3.55859e-07
-6.14841e-07
-1.59622e-07
-4.29957e-07
-5.02798e-07
-2.10329e-07
-5.92373e-07
-1.62282e-08
-5.38285e-07
1.44882e-07
-4.53228e-07
2.67321e-07
-3.63582e-07
3.61619e-07
-2.88357e-07
4.36328e-07
-2.27289e-07
4.96468e-07
-1.77261e-07
5.44704e-07
-1.36168e-07
5.82916e-07
-1.03126e-07
6.12859e-07
-7.74357e-08
6.36212e-07
-5.80854e-08
6.54447e-07
-4.38224e-08
6.68761e-07
-3.34084e-08
6.8008e-07
-2.57979e-08
6.89106e-07
-2.01891e-08
6.96362e-07
-1.60011e-08
7.0224e-07
-1.2826e-08
7.07035e-07
-1.0381e-08
7.1097e-07
-8.47102e-09
7.14217e-07
-6.95839e-09
7.16908e-07
-5.75036e-09
7.19145e-07
-4.76896e-09
7.21017e-07
-3.98337e-09
7.22578e-07
-3.31602e-09
7.239e-07
-2.81201e-09
7.24998e-07
-2.32816e-09
7.25947e-07
-2.02454e-09
7.26729e-07
-1.66031e-09
7.27418e-07
-1.48093e-09
7.27986e-07
-1.22144e-09
7.28499e-07
-1.11606e-09
7.2892e-07
-9.29971e-10
7.29318e-07
-8.8979e-10
-7.6156e-10
4.20225e-08
4.50447e-07
-1.46221e-07
7.1456e-07
-3.41123e-07
7.70421e-07
-4.48357e-07
4.63092e-07
-4.70441e-07
-1.37537e-07
-3.61098e-07
-6.12142e-07
-1.73211e-07
-7.8026e-07
1.35584e-08
-7.25054e-07
1.83675e-07
-6.23345e-07
3.17586e-07
-4.97493e-07
4.13113e-07
-3.83883e-07
4.80112e-07
-2.94289e-07
5.29548e-07
-2.26697e-07
5.68188e-07
-1.74807e-07
5.99199e-07
-1.34138e-07
6.24158e-07
-1.02395e-07
6.44173e-07
-7.80999e-08
6.60197e-07
-5.98462e-08
6.73053e-07
-4.62647e-08
6.83417e-07
-3.61615e-08
6.91818e-07
-2.8591e-08
6.98669e-07
-2.28517e-08
7.04284e-07
-1.84415e-08
7.08909e-07
-1.5006e-08
7.12735e-07
-1.22963e-08
7.1591e-07
-1.01334e-08
7.18555e-07
-8.39532e-09
7.20762e-07
-6.97633e-09
7.22614e-07
-5.83548e-09
7.24163e-07
-4.86449e-09
7.25476e-07
-4.12566e-09
7.2657e-07
-3.42152e-09
7.27514e-07
-2.96874e-09
7.28294e-07
-2.44068e-09
7.28981e-07
-2.16729e-09
7.29547e-07
-1.78809e-09
7.30059e-07
-1.62737e-09
7.30476e-07
-1.34778e-09
7.30872e-07
-1.28543e-09
-1.08265e-09
-8.06224e-08
5.3107e-07
-1.27556e-07
7.61493e-07
-7.26285e-08
7.15494e-07
-5.18751e-08
4.42339e-07
-8.68119e-08
-1.026e-07
-6.8393e-08
-6.30561e-07
4.59674e-09
-8.5325e-07
1.05812e-07
-8.26269e-07
2.18757e-07
-7.3629e-07
3.37778e-07
-6.16514e-07
4.39295e-07
-4.854e-07
5.1299e-07
-3.67984e-07
5.6228e-07
-2.75986e-07
5.95649e-07
-2.08177e-07
6.20001e-07
-1.5849e-07
6.39147e-07
-1.2154e-07
6.54815e-07
-9.3768e-08
6.67795e-07
-7.28262e-08
6.7856e-07
-5.70302e-08
6.87483e-07
-4.50839e-08
6.94878e-07
-3.59864e-08
7.01014e-07
-2.89875e-08
7.06113e-07
-2.35403e-08
7.10358e-07
-1.9251e-08
7.13899e-07
-1.58373e-08
7.16857e-07
-1.30923e-08
7.19335e-07
-1.08733e-08
7.21412e-07
-9.05317e-09
7.23161e-07
-7.58371e-09
7.24626e-07
-6.33036e-09
7.25872e-07
-5.37143e-09
7.26911e-07
-4.46064e-09
7.27809e-07
-3.86688e-09
7.28553e-07
-3.18387e-09
7.29207e-07
-2.82166e-09
7.29747e-07
-2.32816e-09
7.30235e-07
-2.11513e-09
7.30633e-07
-1.74595e-09
7.3101e-07
-1.66257e-09
-1.38779e-09
3.46148e-08
4.96455e-07
2.67972e-07
5.28137e-07
4.87172e-07
4.96293e-07
5.06729e-07
4.22782e-07
4.20708e-07
-1.65788e-08
3.60923e-07
-5.70776e-07
3.49005e-07
-8.41333e-07
3.63182e-07
-8.40446e-07
3.85443e-07
-7.5855e-07
4.21667e-07
-6.52739e-07
4.73456e-07
-5.37188e-07
5.3066e-07
-4.25189e-07
5.79898e-07
-3.25223e-07
6.15187e-07
-2.43466e-07
6.38511e-07
-1.81814e-07
6.54514e-07
-1.37543e-07
6.66662e-07
-1.05916e-07
6.76651e-07
-8.28149e-08
6.85149e-07
-6.55289e-08
6.92427e-07
-5.23612e-08
6.98638e-07
-4.21979e-08
7.03916e-07
-3.4265e-08
7.08383e-07
-2.80081e-08
7.12157e-07
-2.30242e-08
7.15339e-07
-1.90198e-08
7.18021e-07
-1.57746e-08
7.20283e-07
-1.31347e-08
7.22188e-07
-1.09585e-08
7.23799e-07
-9.19421e-09
7.25154e-07
-7.68533e-09
7.26308e-07
-6.52585e-09
7.27273e-07
-5.42578e-09
7.28109e-07
-4.70237e-09
7.28801e-07
-3.8761e-09
7.29411e-07
-3.43198e-09
7.29915e-07
-2.83201e-09
7.3037e-07
-2.57049e-09
7.30742e-07
-2.11771e-09
7.31094e-07
-2.01457e-09
-1.67225e-09
2.94924e-08
4.66963e-07
4.59283e-07
9.83462e-08
7.84518e-07
1.71058e-07
8.92315e-07
3.14985e-07
8.67731e-07
8.00564e-09
7.95256e-07
-4.983e-07
6.92525e-07
-7.38602e-07
6.43014e-07
-7.90936e-07
6.46823e-07
-7.6236e-07
6.42781e-07
-6.48696e-07
6.17382e-07
-5.11789e-07
6.02484e-07
-4.10291e-07
6.11579e-07
-3.34318e-07
6.32384e-07
-2.64272e-07
6.52015e-07
-2.01444e-07
6.66558e-07
-1.52086e-07
6.77019e-07
-1.16377e-07
6.85095e-07
-9.08913e-08
6.9183e-07
-7.22636e-08
6.97663e-07
-5.8194e-08
7.02751e-07
-4.72867e-08
7.0717e-07
-3.86834e-08
7.10979e-07
-3.18176e-08
7.14244e-07
-2.62888e-08
7.17029e-07
-2.18052e-08
7.19399e-07
-1.81437e-08
7.21411e-07
-1.51468e-08
7.23116e-07
-1.26638e-08
7.24564e-07
-1.06424e-08
7.25787e-07
-8.90848e-09
7.26833e-07
-7.57124e-09
7.27709e-07
-6.30201e-09
7.28469e-07
-5.46249e-09
7.291e-07
-4.50689e-09
7.29657e-07
-3.98896e-09
7.30117e-07
-3.29222e-09
7.30533e-07
-2.98671e-09
7.30873e-07
-2.45765e-09
7.31195e-07
-2.3364e-09
-1.93213e-09
9.749e-07
6.38571e-07
9.54168e-07
1.19078e-07
1.13376e-06
-8.53893e-09
1.21737e-06
2.3138e-07
1.22617e-06
-7.94468e-10
1.22376e-06
-4.95889e-07
1.13423e-06
-6.49071e-07
9.70895e-07
-6.27603e-07
8.79247e-07
-6.70712e-07
8.74115e-07
-6.43565e-07
8.58306e-07
-4.9598e-07
8.02939e-07
-3.54924e-07
7.48222e-07
-2.79601e-07
7.2061e-07
-2.3666e-07
7.14434e-07
-1.95268e-07
7.17894e-07
-1.55546e-07
7.23799e-07
-1.22281e-07
7.29476e-07
-9.65684e-08
7.34472e-07
-7.72603e-08
7.38909e-07
-6.26305e-08
7.42904e-07
-5.12814e-08
7.46496e-07
-4.2276e-08
7.49693e-07
-3.50144e-08
7.52503e-07
-2.90986e-08
7.54947e-07
-2.42495e-08
7.57057e-07
-2.02532e-08
7.58868e-07
-1.69581e-08
7.60416e-07
-1.42117e-08
7.61739e-07
-1.19655e-08
7.62862e-07
-1.00317e-08
7.63826e-07
-8.53518e-09
7.64637e-07
-7.11256e-09
7.65342e-07
-6.16758e-09
7.65928e-07
-5.09324e-09
7.66447e-07
-4.50762e-09
7.66876e-07
-3.72137e-09
7.67264e-07
-3.37515e-09
7.67582e-07
-2.77514e-09
7.67883e-07
-2.63702e-09
-2.17478e-09
1.23618e-06
6.34266e-07
1.19191e-06
1.63347e-07
1.23059e-06
-4.72173e-08
1.32398e-06
1.37992e-07
1.35333e-06
-3.01467e-08
1.24871e-06
-3.91269e-07
1.18526e-06
-5.85622e-07
1.11766e-06
-5.60004e-07
9.68606e-07
-5.21654e-07
8.58461e-07
-5.3342e-07
8.44334e-07
-4.81853e-07
8.55603e-07
-3.66193e-07
8.3914e-07
-2.63138e-07
8.01503e-07
-1.99023e-07
7.67563e-07
-1.61328e-07
7.47788e-07
-1.35771e-07
7.40171e-07
-1.14664e-07
7.3928e-07
-9.56776e-08
7.41346e-07
-7.93261e-08
7.4437e-07
-6.56545e-08
7.47482e-07
-5.43936e-08
7.5037e-07
-4.5164e-08
7.52952e-07
-3.75963e-08
7.55225e-07
-3.13724e-08
7.57212e-07
-2.62362e-08
7.58938e-07
-2.19788e-08
7.6043e-07
-1.84503e-08
7.61714e-07
-1.54958e-08
7.62819e-07
-1.30702e-08
7.63762e-07
-1.09745e-08
7.64575e-07
-9.34826e-09
7.65261e-07
-7.79886e-09
7.6586e-07
-6.76667e-09
7.6636e-07
-5.59276e-09
7.66802e-07
-4.9505e-09
7.6717e-07
-4.08847e-09
7.67502e-07
-3.70788e-09
7.67774e-07
-3.04734e-09
7.68032e-07
-2.89489e-09
-2.38289e-09
1.21192e-06
5.17549e-07
1.22833e-06
1.46934e-07
1.22355e-06
-4.24365e-08
1.33916e-06
2.23787e-08
1.36899e-06
-5.99789e-08
1.21175e-06
-2.34028e-07
1.08853e-06
-4.62401e-07
1.04855e-06
-5.20022e-07
9.32842e-07
-4.05946e-07
7.51864e-07
-3.52441e-07
6.51473e-07
-3.81462e-07
6.62302e-07
-3.77021e-07
7.16119e-07
-3.16956e-07
7.57105e-07
-2.40008e-07
7.72195e-07
-1.76419e-07
7.70266e-07
-1.33842e-07
7.63336e-07
-1.07734e-07
7.57632e-07
-8.99729e-08
7.54554e-07
-7.6248e-08
7.53656e-07
-6.47567e-08
7.54131e-07
-5.48686e-08
7.55315e-07
-4.6348e-08
7.56776e-07
-3.90579e-08
7.58274e-07
-3.28705e-08
7.59691e-07
-2.76527e-08
7.60977e-07
-2.32646e-08
7.62119e-07
-1.95922e-08
7.63118e-07
-1.64955e-08
7.63989e-07
-1.39407e-08
7.64738e-07
-1.1724e-08
7.65389e-07
-9.99926e-09
7.65942e-07
-8.35128e-09
7.66426e-07
-7.25118e-09
7.66832e-07
-5.99818e-09
7.67192e-07
-5.31106e-09
7.67492e-07
-4.38805e-09
7.67764e-07
-3.97993e-09
7.67987e-07
-3.2702e-09
7.68198e-07
-3.10622e-09
-2.55348e-09
1.20657e-06
3.60851e-07
1.2109e-06
1.426e-07
1.18263e-06
-1.41655e-08
1.24567e-06
-4.06568e-08
1.25831e-06
-7.26196e-08
1.195e-06
-1.70714e-07
1.06219e-06
-3.29593e-07
9.3331e-07
-3.91144e-07
8.61967e-07
-3.34604e-07
8.03581e-07
-2.94055e-07
7.2835e-07
-3.06231e-07
6.71534e-07
-3.20205e-07
6.59771e-07
-3.05193e-07
6.7734e-07
-2.57578e-07
7.01844e-07
-2.00923e-07
7.22447e-07
-1.54445e-07
7.36443e-07
-1.2173e-07
7.45294e-07
-9.88236e-08