/*--------------------------------*- C++ -*----------------------------------*\
| =========                 |                                                 |
| \\      /  F ield         | OpenFOAM: The Open Source CFD Toolbox           |
|  \\    /   O peration     | Version:  2112                                  |
|   \\  /    A nd           | Website:  www.openfoam.com                      |
|    \\/     M anipulation  |                                                 |
\*---------------------------------------------------------------------------*/
FoamFile
{
    version     2.0;
    format      ascii;
    arch        "LSB;label=32;scalar=64";
    class       volVectorField;
    location    "0.11";
    object      U;
}
// * * * * * * * * * * * * * * * * * * * * * * * * * * * * * * * * * * * * * //

dimensions      [0 1 -1 0 0 0 0];

internalField   nonuniform List<vector> 
1880
(
(0.0991059 0.00058085 0)
(0.0984627 0.00121522 0)
(0.097174 0.00127451 0)
(0.0960151 0.00121374 0)
(0.0943683 0.00130049 0)
(0.0923446 0.00142636 0)
(0.0907305 0.00150404 0)
(0.0891472 0.00150179 0)
(0.0872262 0.00134269 0)
(0.0854676 0.00103888 0)
(0.0842532 0.00072262 0)
(0.0834245 0.000487307 0)
(0.082763 0.000338363 0)
(0.0822241 0.000245324 0)
(0.0817868 0.000207245 0)
(0.0813989 0.000186079 0)
(0.0809909 0.000222566 0)
(0.0805446 0.000207587 0)
(0.0800299 0.000323098 0)
(0.0794168 0.000255721 0)
(0.0787192 0.000510271 0)
(0.0778107 0.000341278 0)
(0.0767897 0.000803177 0)
(0.0754332 0.000526046 0)
(0.0737528 0.00129996 0)
(0.0716652 0.000892572 0)
(0.0687065 0.00228971 0)
(0.0649602 0.00211025 0)
(0.0592823 0.00397073 0)
(0.0521224 0.00881495 0)
(0.100055 0.000665234 0)
(0.100355 0.00146681 0)
(0.100538 0.00163786 0)
(0.101197 0.00161849 0)
(0.101336 0.00174014 0)
(0.100999 0.00190843 0)
(0.101171 0.00204112 0)
(0.101551 0.00212473 0)
(0.101485 0.00204841 0)
(0.101173 0.00176092 0)
(0.100962 0.0013852 0)
(0.100785 0.00105652 0)
(0.100495 0.000825346 0)
(0.100157 0.000670689 0)
(0.0997867 0.000612447 0)
(0.0994878 0.000574098 0)
(0.0990087 0.000675428 0)
(0.0987475 0.000637955 0)
(0.0979432 0.000967105 0)
(0.097865 0.000753522 0)
(0.096401 0.00153933 0)
(0.09671 0.000935721 0)
(0.0942057 0.00241759 0)
(0.0948984 0.00147436 0)
(0.0911791 0.00356245 0)
(0.0918568 0.00290393 0)
(0.0866791 0.00551569 0)
(0.0870424 0.00587333 0)
(0.080168 0.0103316 0)
(0.0784742 0.0123236 0)
(0.100062 0.000231476 0)
(0.100253 0.000689291 0)
(0.100359 0.000958293 0)
(0.101082 0.00106211 0)
(0.101332 0.00116761 0)
(0.101096 0.0013074 0)
(0.101409 0.0014498 0)
(0.101984 0.00155698 0)
(0.102124 0.00156815 0)
(0.102 0.00145942 0)
(0.101943 0.00128557 0)
(0.101873 0.00111629 0)
(0.101643 0.000992869 0)
(0.101328 0.000917394 0)
(0.100983 0.000905805 0)
(0.100685 0.00092732 0)
(0.100272 0.0010369 0)
(0.0999858 0.00111885 0)
(0.0993541 0.00139603 0)
(0.0991681 0.00145465 0)
(0.0980728 0.00208691 0)
(0.0981396 0.00192492 0)
(0.0963018 0.0033032 0)
(0.0965587 0.0027235 0)
(0.0941892 0.00510365 0)
(0.0936879 0.0047448 0)
(0.0920791 0.00738229 0)
(0.0890128 0.00946386 0)
(0.0897785 0.0114089 0)
(0.0834921 0.0171615 0)
(0.10007 0.000216201 0)
(0.100154 0.000639912 0)
(0.100073 0.000945724 0)
(0.100717 0.0011013 0)
(0.100971 0.00120639 0)
(0.100708 0.00132639 0)
(0.100969 0.00146223 0)
(0.101511 0.00158758 0)
(0.101643 0.0016573 0)
(0.101543 0.00163491 0)
(0.101553 0.00153526 0)
(0.101586 0.00140627 0)
(0.101462 0.00129855 0)
(0.101254 0.00122619 0)
(0.100987 0.00122303 0)
(0.100787 0.00125052 0)
(0.100412 0.00139454 0)
(0.100235 0.00149508 0)
(0.0996118 0.00184549 0)
(0.0995703 0.00194368 0)
(0.0985042 0.00266929 0)
(0.0987399 0.0026243 0)
(0.0969931 0.00405623 0)
(0.097622 0.00371369 0)
(0.095047 0.00623465 0)
(0.0960582 0.00572885 0)
(0.0927703 0.00955456 0)
(0.0939277 0.0093894 0)
(0.0908563 0.0149819 0)
(0.0912175 0.0157675 0)
(0.100072 0.000137281 0)
(0.100111 0.000403547 0)
(0.0999495 0.000639899 0)
(0.100548 0.000800843 0)
(0.100791 0.000899484 0)
(0.100508 0.000991436 0)
(0.100739 0.00110976 0)
(0.101254 0.00124285 0)
(0.101376 0.00135417 0)
(0.101292 0.00141176 0)
(0.101347 0.00141363 0)
(0.101444 0.00138448 0)
(0.101387 0.00135914 0)
(0.101244 0.00135657 0)
(0.101033 0.00140199 0)
(0.100898 0.00148511 0)
(0.100572 0.00165089 0)
(0.100475 0.00182987 0)
(0.0999011 0.00216978 0)
(0.0999602 0.0024171 0)
(0.0989998 0.00306446 0)
(0.099286 0.00330517 0)
(0.0979324 0.00450113 0)
(0.0982403 0.00473822 0)
(0.0969079 0.00653851 0)
(0.0966611 0.00741746 0)
(0.0960624 0.00909264 0)
(0.0949268 0.0121669 0)
(0.0954602 0.0130219 0)
(0.0942005 0.018319 0)
(0.100073 0.000115855 0)
(0.100098 0.000336935 0)
(0.0998957 0.000554016 0)
(0.100455 0.00072413 0)
(0.100677 0.00083208 0)
(0.100379 0.000922555 0)
(0.100586 0.00103592 0)
(0.101075 0.00117083 0)
(0.101181 0.00129848 0)
(0.101101 0.00138931 0)
(0.101181 0.00143366 0)
(0.101322 0.00144637 0)
(0.101321 0.00145667 0)
(0.101242 0.00148703 0)
(0.101092 0.00156009 0)
(0.101026 0.00167639 0)
(0.100758 0.00186385 0)
(0.100743 0.00209015 0)
(0.100231 0.00243817 0)
(0.100398 0.00277289 0)
(0.0995287 0.00338363 0)
(0.0999557 0.00378973 0)
(0.0987421 0.0048658 0)
(0.0993032 0.00530419 0)
(0.0980359 0.00705084 0)
(0.0984662 0.00767827 0)
(0.0975463 0.0101247 0)
(0.0977422 0.0113281 0)
(0.0978134 0.0144864 0)
(0.0974072 0.0165615 0)
(0.100073 8.93701e-05 0)
(0.100085 0.000254031 0)
(0.099858 0.000423579 0)
(0.100391 0.000569595 0)
(0.100596 0.000665339 0)
(0.100289 0.000740238 0)
(0.100488 0.000837916 0)
(0.10097 0.000968631 0)
(0.101076 0.00111078 0)
(0.101005 0.00123546 0)
(0.101106 0.00132748 0)
(0.101283 0.00139373 0)
(0.101325 0.00145415 0)
(0.101296 0.00153096 0)
(0.101199 0.00163976 0)
(0.101191 0.00179529 0)
(0.100984 0.00200291 0)
(0.101038 0.00227547 0)
(0.100608 0.00262038 0)
(0.10085 0.00303133 0)
(0.100123 0.00358496 0)
(0.100593 0.00414289 0)
(0.0996884 0.00501465 0)
(0.100148 0.00580007 0)
(0.0995269 0.00696546 0)
(0.099598 0.00837548 0)
(0.0996889 0.00951081 0)
(0.0995281 0.0120813 0)
(0.100174 0.0132055 0)
(0.100673 0.0163324 0)
(0.100073 7.00808e-05 0)
(0.10008 0.000196099 0)
(0.0998408 0.00033359 0)
(0.100361 0.000463208 0)
(0.100556 0.000553526 0)
(0.100244 0.000621501 0)
(0.100438 0.000708356 0)
(0.100914 0.000831731 0)
(0.10102 0.000977171 0)
(0.100958 0.00111832 0)
(0.10108 0.00123751 0)
(0.101286 0.0013374 0)
(0.101366 0.00143159 0)
(0.101381 0.00154129 0)
(0.101335 0.00167661 0)
(0.10138 0.00186123 0)
(0.101237 0.00208371 0)
(0.10135 0.00238776 0)
(0.10101 0.00272767 0)
(0.101314 0.00318465 0)
(0.100724 0.00369395 0)
(0.10126 0.0043245 0)
(0.10055 0.00508771 0)
(0.101111 0.00594613 0)
(0.100706 0.00698949 0)
(0.100979 0.00825853 0)
(0.101271 0.00953794 0)
(0.10134 0.0113427 0)
(0.102373 0.0129316 0)
(0.102573 0.0152402 0)
(0.100073 5.27673e-05 0)
(0.100077 0.000143885 0)
(0.0998327 0.000249416 0)
(0.100345 0.000356835 0)
(0.100536 0.000433923 0)
(0.100222 0.000488898 0)
(0.100416 0.000560538 0)
(0.100894 0.000672656 0)
(0.101005 0.000817192 0)
(0.100956 0.000969848 0)
(0.101097 0.00111073 0)
(0.10133 0.00123902 0)
(0.101445 0.00136298 0)
(0.101498 0.001502 0)
(0.101499 0.00166093 0)
(0.101589 0.00186948 0)
(0.101511 0.00210321 0)
(0.101671 0.00242817 0)
(0.101427 0.00275956 0)
(0.101772 0.00324231 0)
(0.101334 0.00370409 0)
(0.101891 0.00438318 0)
(0.10141 0.00501204 0)
(0.101974 0.00597833 0)
(0.101867 0.0067293 0)
(0.102164 0.0081696 0)
(0.102727 0.00900167 0)
(0.103007 0.0108888 0)
(0.103912 0.0120571 0)
(0.10491 0.013958 0)
(0.100073 3.62339e-05 0)
(0.100077 9.42712e-05 0)
(0.0998307 0.000168305 0)
(0.100342 0.000252532 0)
(0.100533 0.0003157 0)
(0.100223 0.000358381 0)
(0.100421 0.000415318 0)
(0.100904 0.000514327 0)
(0.101024 0.000653336 0)
(0.100988 0.000810963 0)
(0.101149 0.000966413 0)
(0.101406 0.00111601 0)
(0.101553 0.00126338 0)
(0.10164 0.00142531 0)
(0.101683 0.00160271 0)
(0.101813 0.00182777 0)
(0.101797 0.00206856 0)
(0.101995 0.00240217 0)
(0.101846 0.00272425 0)
(0.102218 0.00320911 0)
(0.101925 0.00363432 0)
(0.102497 0.0043119 0)
(0.102206 0.00485682 0)
(0.102802 0.00581079 0)
(0.102887 0.00643386 0)
(0.103269 0.00777227 0)
(0.104001 0.00850622 0)
(0.104358 0.0101116 0)
(0.105493 0.0111001 0)
(0.106342 0.0128961 0)
(0.100073 1.95993e-05 0)
(0.100078 4.48714e-05 0)
(0.0998343 8.70126e-05 0)
(0.10035 0.000146474 0)
(0.100547 0.000193654 0)
(0.100243 0.000222068 0)
(0.100447 0.000261984 0)
(0.100939 0.000344753 0)
(0.101071 0.00047428 0)
(0.101051 0.000632272 0)
(0.101231 0.0007976 0)
(0.101511 0.000964107 0)
(0.101685 0.0011311 0)
(0.101801 0.00131195 0)
(0.101884 0.00150405 0)
(0.102045 0.00173973 0)
(0.102087 0.00198363 0)
(0.102315 0.00231655 0)
(0.102256 0.00262647 0)
(0.102644 0.00309821 0)
(0.102488 0.00348729 0)
(0.103061 0.0041421 0)
(0.102943 0.00460722 0)
(0.103554 0.00553046 0)
(0.103799 0.00601905 0)
(0.104262 0.00727607 0)
(0.105065 0.00786458 0)
(0.105608 0.00924882 0)
(0.106653 0.010136 0)
(0.107794 0.0114903 0)
(0.100074 2.09511e-06 0)
(0.100081 -7.08196e-06 0)
(0.0998426 1.75338e-06 0)
(0.100366 3.61416e-05 0)
(0.100573 6.87938e-05 0)
(0.100279 8.4846e-05 0)
(0.100495 0.000108579 0)
(0.100999 0.000174062 0)
(0.101146 0.00029151 0)
(0.101142 0.000445807 0)
(0.10134 0.000616434 0)
(0.101642 0.000794984 0)
(0.101841 0.000976715 0)
(0.10198 0.00117126 0)
(0.102096 0.00137341 0)
(0.102283 0.00161341 0)
(0.102376 0.00185622 0)
(0.102625 0.00217948 0)
(0.102649 0.00247479 0)
(0.103044 0.00291925 0)
(0.103012 0.00327602 0)
(0.103578 0.00388421 0)
(0.103609 0.0042892 0)
(0.104231 0.00513985 0)
(0.104599 0.00554036 0)
(0.105128 0.00666472 0)
(0.10599 0.00715155 0)
(0.106619 0.00833963 0)
(0.107714 0.00903408 0)
(0.108841 0.0102735 0)
(0.100073 -1.80496e-05 0)
(0.100087 -6.65416e-05 0)
(0.0998592 -9.68392e-05 0)
(0.100398 -9.40251e-05 0)
(0.100621 -8.1917e-05 0)
(0.10034 -8.35602e-05 0)
(0.100567 -8.09558e-05 0)
(0.101086 -3.72327e-05 0)
(0.101249 6.41313e-05 0)
(0.10126 0.000214529 0)
(0.101475 0.00039376 0)
(0.101794 0.00058885 0)
(0.102013 0.000788714 0)
(0.102171 0.000998048 0)
(0.102314 0.00120993 0)
(0.10252 0.0014515 0)
(0.102656 0.00169047 0)
(0.102921 0.00199777 0)
(0.103016 0.00227575 0)
(0.103414 0.00268364 0)
(0.10349 0.00300869 0)
(0.104045 0.00355647 0)
(0.104202 0.00391037 0)
(0.10483 0.00466895 0)
(0.10529 0.00500119 0)
(0.105881 0.00597846 0)
(0.106758 0.00638836 0)
(0.107489 0.00736767 0)
(0.108553 0.00796676 0)
(0.109741 0.00893831 0)
(0.100073 -4.02959e-05 0)
(0.100093 -0.000131496 0)
(0.0998787 -0.000199675 0)
(0.100437 -0.000220906 0)
(0.10068 -0.000219975 0)
(0.100417 -0.000231632 0)
(0.100662 -0.000244461 0)
(0.1012 -0.000217835 0)
(0.101387 -0.000128649 0)
(0.10142 1.91421e-05 0)
(0.101654 0.000204004 0)
(0.101985 0.000406888 0)
(0.102216 0.000613528 0)
(0.102382 0.000826254 0)
(0.10254 0.00103783 0)
(0.102757 0.0012718 0)
(0.102925 0.00149983 0)
(0.103198 0.00178339 0)
(0.103354 0.00203936 0)
(0.103749 0.00240311 0)
(0.103916 0.00269502 0)
(0.104458 0.0031733 0)
(0.10472 0.00348202 0)
(0.105348 0.00413644 0)
(0.105879 0.00441517 0)
(0.106517 0.00524153 0)
(0.107401 0.00558149 0)
(0.108194 0.0063883 0)
(0.109253 0.00686138 0)
(0.110434 0.00767408 0)
(0.100073 -7.31913e-05 0)
(0.100109 -0.000230369 0)
(0.0999251 -0.000358142 0)
(0.100516 -0.000417274 0)
(0.100786 -0.000438462 0)
(0.100542 -0.000471938 0)
(0.100807 -0.000509458 0)
(0.101368 -0.000504971 0)
(0.101574 -0.000428293 0)
(0.101619 -0.000280601 0)
(0.101855 -8.34075e-05 0)
(0.102184 0.00014115 0)
(0.102415 0.00037408 0)
(0.102583 0.000607773 0)
(0.102754 0.000830625 0)
(0.102977 0.00106209 0)
(0.103171 0.00128038 0)
(0.103449 0.00153837 0)
(0.103654 0.00176996 0)
(0.104044 0.00208587 0)
(0.104287 0.00234249 0)
(0.104814 0.00274751 0)
(0.105161 0.00301266 0)
(0.105788 0.00355944 0)
(0.10637 0.00379213 0)
(0.107045 0.00447032 0)
(0.107926 0.00475105 0)
(0.108766 0.00539386 0)
(0.109808 0.00577512 0)
(0.110983 0.00641036 0)
(0.100073 -9.94581e-05 0)
(0.100124 -0.000308983 0)
(0.0999822 -0.000467802 0)
(0.100618 -0.000533157 0)
(0.100918 -0.000556789 0)
(0.100699 -0.000598481 0)
(0.100996 -0.000650087 0)
(0.101593 -0.000662106 0)
(0.101829 -0.000596585 0)
(0.101892 -0.000447817 0)
(0.102135 -0.000239241 0)
(0.102464 -1.21794e-06 0)
(0.102687 0.000235 0)
(0.102837 0.000457302 0)
(0.102994 0.000662757 0)
(0.103203 0.000869617 0)
(0.103406 0.0010621 0)
(0.103678 0.00128286 0)
(0.103917 0.00148176 0)
(0.104299 0.00174406 0)
(0.104601 0.00196103 0)
(0.105114 0.00229076 0)
(0.105527 0.00251131 0)
(0.10615 0.00295169 0)
(0.10677 0.00314028 0)
(0.107472 0.00367934 0)
(0.108345 0.00390243 0)
(0.109215 0.00440284 0)
(0.110244 0.00469426 0)
(0.111398 0.00518631 0)
(0.10007 -0.00018588 0)
(0.100169 -0.000563463 0)
(0.100111 -0.000806091 0)
(0.100796 -0.000883346 0)
(0.101114 -0.000925721 0)
(0.100923 -0.00100221 0)
(0.101261 -0.00108144 0)
(0.101898 -0.00110764 0)
(0.10216 -0.00103552 0)
(0.102224 -0.000849928 0)
(0.102443 -0.00058404 0)
(0.102728 -0.000293662 0)
(0.102904 -2.2432e-05 0)
(0.103023 0.000224905 0)
(0.10317 0.000442938 0)
(0.103374 0.000643531 0)
(0.103588 0.000819173 0)
(0.10386 0.00100602 0)
(0.104128 0.00117207 0)
(0.104505 0.00138009 0)
(0.104852 0.00155559 0)
(0.105353 0.00180981 0)
(0.105817 0.00198552 0)
(0.106435 0.00232184 0)
(0.107083 0.00246829 0)
(0.107803 0.00287698 0)
(0.108667 0.00304419 0)
(0.109556 0.00341718 0)
(0.110572 0.00362844 0)
(0.111701 0.00399089 0)
(0.100063 -0.000209369 0)
(0.10027 -0.000633286 0)
(0.100402 -0.000856237 0)
(0.10117 -0.000902973 0)
(0.10149 -0.000962031 0)
(0.101334 -0.00106834 0)
(0.101731 -0.00116598 0)
(0.102407 -0.00119672 0)
(0.102686 -0.00110268 0)
(0.102741 -0.000876073 0)
(0.102913 -0.000583218 0)
(0.103124 -0.00029689 0)
(0.103233 -4.89453e-05 0)
(0.103294 0.000160925 0)
(0.10339 0.000331845 0)
(0.10355 0.000480486 0)
(0.103743 0.000608382 0)
(0.103997 0.000740833 0)
(0.104275 0.000862214 0)
(0.104645 0.00100707 0)
(0.105022 0.00113822 0)
(0.105516 0.00131235 0)
(0.106015 0.00144435 0)
(0.106632 0.00167685 0)
(0.107297 0.0017816 0)
(0.108034 0.00206909 0)
(0.108886 0.00218232 0)
(0.109793 0.00243888 0)
(0.110794 0.00257887 0)
(0.111904 0.00282407 0)
(0.100056 -0.000650321 0)
(0.100372 -0.00142857 0)
(0.100583 -0.00156881 0)
(0.101294 -0.00151192 0)
(0.10151 -0.00160225 0)
(0.101262 -0.00174615 0)
(0.101532 -0.00184493 0)
(0.102035 -0.00187482 0)
(0.102134 -0.00173075 0)
(0.102032 -0.00137238 0)
(0.10208 -0.000926233 0)
(0.102217 -0.000529492 0)
(0.102293 -0.000224407 0)
(0.102352 -4.00754e-07 0)
(0.102471 0.000160179 0)
(0.102664 0.000278829 0)
(0.102894 0.000368715 0)
(0.10318 0.000452912 0)
(0.10349 0.000529091 0)
(0.103892 0.000613797 0)
(0.104291 0.000696596 0)
(0.104838 0.000793337 0)
(0.105328 0.00088063 0)
(0.106043 0.0010075 0)
(0.106647 0.00107923 0)
(0.107535 0.00123813 0)
(0.108278 0.00131259 0)
(0.10936 0.00144861 0)
(0.110226 0.00153555 0)
(0.11151 0.00165573 0)
(0.0991066 -0.000577054 0)
(0.0984814 -0.00120479 0)
(0.0972247 -0.00125514 0)
(0.0961225 -0.00118363 0)
(0.0945587 -0.00126132 0)
(0.0926322 -0.00137851 0)
(0.0911311 -0.00144253 0)
(0.0896951 -0.001423 0)
(0.0879676 -0.0012477 0)
(0.0864398 -0.000929107 0)
(0.0854972 -0.000596489 0)
(0.0849877 -0.000344116 0)
(0.0846912 -0.000172769 0)
(0.0845653 -5.2534e-05 0)
(0.0845994 3.03717e-05 0)
(0.0847487 8.40058e-05 0)
(0.0849645 0.000119333 0)
(0.0852411 0.000149412 0)
(0.0855599 0.000174525 0)
(0.0859505 0.000202499 0)
(0.0863651 0.000228203 0)
(0.0868884 0.000258359 0)
(0.0873935 0.000287526 0)
(0.0880802 0.000322135 0)
(0.0886802 0.000350595 0)
(0.0895436 0.000391325 0)
(0.090252 0.00041798 0)
(0.091302 0.000451853 0)
(0.0920981 0.000479893 0)
(0.093343 0.000494701 0)
(0.0378937 0.00592533 0)
(0.0722381 0.0380707 0)
(0.0488439 0.0119775 0)
(0.100128 0.0388561 1.16734e-21)
(0.0592284 0.0372884 9.26826e-22)
(0.0909671 0.0328132 0)
(0.104238 0.0389373 6.95546e-22)
(0.100963 0.0539746 1.61843e-22)
(0.0771833 0.0291114 6.13612e-22)
(0.158007 0.0516564 0)
(0.07523 0.024125 0)
(0.0808905 0.0283591 0)
(0.0969685 0.0356383 0)
(0.0887919 0.0406175 0)
(0.0991254 0.0498122 0)
(0.113446 0.0319585 2.76083e-22)
(0.115381 0.0535966 2.06315e-22)
(0.118347 0.078545 -5.96727e-23)
(0.126537 0.0304613 -5.13869e-22)
(0.156811 0.0401567 -4.4831e-22)
(0.086624 0.0216128 0)
(0.0874907 0.0271219 0)
(0.0947883 0.0323045 0)
(0.0947681 0.028823 0)
(0.107544 0.0441639 0)
(0.114939 0.0311518 -2.76082e-22)
(0.103748 0.0309817 -2.06323e-22)
(0.131659 0.067205 5.96842e-23)
(0.153408 0.0350854 2.75241e-22)
(0.140782 0.0122514 4.48264e-22)
(0.0909889 0.0230674 -5.54214e-22)
(0.0924429 0.026188 0)
(0.10092 0.0295257 -4.54543e-22)
(0.101561 0.0320417 -4.06627e-22)
(0.107165 0.038282 -3.18006e-22)
(0.119287 0.0362264 0)
(0.112925 0.0354256 0)
(0.128291 0.0460959 8.73151e-24)
(0.149782 0.034807 1.99064e-22)
(0.134724 0.0261008 3.72466e-22)
(0.0951346 0.0210333 5.54218e-22)
(0.0978875 0.0225942 0)
(0.10199 0.029389 4.54546e-22)
(0.104982 0.0261494 4.0663e-22)
(0.11078 0.0327316 3.18008e-22)
(0.117621 0.0283634 0)
(0.120299 0.0307835 0)
(0.129577 0.0377336 -8.73166e-24)
(0.140984 0.0254323 -1.9909e-22)
(0.137229 0.0130822 -3.72506e-22)
(0.0993458 0.0200044 0)
(0.100148 0.0230894 -4.33223e-22)
(0.105488 0.0246781 0)
(0.1089 0.0258492 -3.32028e-22)
(0.112797 0.0301276 0)
(0.119302 0.0284251 0)
(0.122089 0.0282329 0)
(0.12953 0.0297252 -1.26723e-23)
(0.139923 0.0265403 0)
(0.13743 0.0194772 0)
(0.101158 0.0189641 4.3124e-22)
(0.10392 0.0193867 8.34042e-22)
(0.107549 0.0237816 3.58159e-22)
(0.110527 0.0224271 3.32029e-22)
(0.114614 0.0251586 0)
(0.120079 0.0236396 -1.72553e-22)
(0.124253 0.0246438 0)
(0.129165 0.0237057 1.26724e-23)
(0.135472 0.0189335 0)
(0.137485 0.0129551 0)
(0.104289 0.0169319 -4.31242e-22)
(0.105877 0.0191258 -4.00818e-22)
(0.10935 0.0202133 -3.58159e-22)
(0.112782 0.0207391 0)
(0.116423 0.0227609 0)
(0.12037 0.021694 1.72553e-22)
(0.124638 0.0213501 0)
(0.129351 0.0204486 0)
(0.134104 0.0183463 0)
(0.135405 0.013651 0)
(0.10578 0.0159071 0)
(0.107944 0.01635 -3.49645e-22)
(0.111061 0.0184543 0)
(0.113847 0.0182713 -2.67366e-22)
(0.117219 0.0191813 0)
(0.121186 0.0183649 0)
(0.124858 0.0184013 -8.66282e-23)
(0.128271 0.0163321 -1.56951e-23)
(0.132141 0.01407 0)
(0.134465 0.0101047 1.28768e-22)
(0.107673 0.0139436 0)
(0.109502 0.0151464 3.49645e-22)
(0.112194 0.0160058 0)
(0.114968 0.0161888 2.67366e-22)
(0.118217 0.0168729 0)
(0.121224 0.0162378 0)
(0.124689 0.0156391 8.66284e-23)
(0.127879 0.0141476 1.56951e-23)
(0.130804 0.0125435 0)
(0.132647 0.00939012 -1.28769e-22)
(0.108912 0.0126242 1.6803e-22)
(0.110719 0.0131383 0)
(0.113232 0.0140585 0)
(0.115688 0.0141163 1.21569e-22)
(0.118541 0.0143599 0)
(0.121484 0.0136581 0)
(0.124389 0.0132831 0)
(0.126941 0.0115175 2.01019e-23)
(0.12952 0.0100154 0)
(0.131385 0.0072824 0)
(0.110052 0.0109622 -7.45177e-24)
(0.111745 0.0116008 0)
(0.113971 0.0121379 1.35198e-22)
(0.116227 0.0121901 -4.09642e-24)
(0.118933 0.0123047 0)
(0.121403 0.0117405 0)
(0.123991 0.0111149 5.05051e-23)
(0.126311 0.00975277 -2.0102e-23)
(0.128431 0.0084901 8.93328e-25)
(0.13005 0.00628784 -2.33429e-23)
(0.110922 0.00954211 -6.12133e-24)
(0.112514 0.0099574 0)
(0.114551 0.0103697 -4.43117e-24)
(0.11663 0.0103837 -3.03427e-24)
(0.119016 0.0103718 9.55858e-23)
(0.121322 0.00974761 -7.4874e-23)
(0.123576 0.00924333 2.93181e-24)
(0.125562 0.00794169 3.12003e-23)
(0.127459 0.0068137 7.81141e-24)
(0.128948 0.0049402 1.01001e-23)
(0.111624 0.00808808 -1.54457e-22)
(0.113135 0.00844769 0)
(0.114985 0.00871833 -1.30767e-22)
(0.116886 0.00870916 -1.14439e-22)
(0.119086 0.00862034 -9.55859e-23)
(0.121138 0.00810162 1.50672e-22)
(0.123154 0.00754601 -5.3437e-23)
(0.124955 0.00649608 -3.12003e-23)
(0.126614 0.00552679 -8.70475e-24)
(0.127969 0.0039992 1.32429e-23)
(0.112168 0.00672528 0)
(0.113602 0.00698627 0)
(0.115298 0.00716635 0)
(0.117067 0.00713656 0)
(0.119045 0.00701838 0)
(0.120937 0.00651564 -7.57977e-23)
(0.122755 0.0060351 0)
(0.124378 0.00512113 0)
(0.125886 0.00429174 0)
(0.127138 0.00302912 0)
(0.11258 0.00540314 0)
(0.113951 0.0055962 0)
(0.115526 0.00570681 0)
(0.117166 0.00566822 0)
(0.11898 0.00552532 0)
(0.120713 0.00510221 -3.91367e-23)
(0.122388 0.00465434 0)
(0.123887 0.00391784 0)
(0.12527 0.00322645 0)
(0.126438 0.00221645 0)
(0.112882 0.00413178 0)
(0.114194 0.00426426 0)
(0.115682 0.00431687 6.06188e-23)
(0.117208 0.00427004 0)
(0.118889 0.00412308 4.74585e-23)
(0.120484 0.00375823 3.91368e-23)
(0.122061 0.00337864 0)
(0.123443 0.00278193 2.3396e-23)
(0.124749 0.00222358 0)
(0.125825 0.00142816 0)
(0.113084 0.00290025 0)
(0.114307 0.00298687 0)
(0.115747 0.00299635 -6.06189e-23)
(0.117117 0.00294092 0)
(0.118723 0.00280262 -4.74586e-23)
(0.120127 0.00250977 0)
(0.121668 0.00218835 0)
(0.122851 0.00173325 -2.3396e-23)
(0.124129 0.00130375 0)
(0.124997 0.000712257 0)
(0.112548 0.00168151 -1.73142e-23)
(0.113496 0.00171541 -1.62632e-23)
(0.114787 0.00167853 -1.50332e-23)
(0.115794 0.00161595 0)
(0.117263 0.00147525 -1.20137e-23)
(0.118206 0.00127641 0)
(0.119651 0.00101437 -8.36387e-24)
(0.120278 0.000704784 0)
(0.12147 0.000383429 -4.40475e-24)
(0.121638 -8.28365e-08 -2.39426e-24)
(0.0942303 0.000483377 1.73123e-23)
(0.0950378 0.000444189 1.62613e-23)
(0.0959743 0.000378123 1.50313e-23)
(0.0966718 0.000304874 0)
(0.0975567 0.000194182 1.2012e-23)
(0.097984 9.22626e-05 0)
(0.0986267 -7.46712e-05 8.36259e-24)
(0.098458 -0.000218333 0)
(0.0985775 -0.000387651 4.40399e-24)
(0.0976475 -0.000546719 2.39382e-24)
(-0.0109661 -0.00179564 0)
(-0.0273677 0.00559735 0)
(-0.0569154 0.0101894 0)
(-0.0859263 0.00635586 0)
(-0.0859297 -0.000701705 0)
(-0.0698394 -0.00611646 0)
(-0.0471539 -0.00694123 0)
(-0.0234278 -0.00705308 0)
(-0.00235092 -0.00566985 0)
(0.0152604 -0.00451849 0)
(0.0295538 -0.00334028 0)
(0.0406728 -0.00233695 0)
(0.0490362 -0.00154071 0)
(0.0551237 -0.000952465 0)
(0.0594333 -0.000549577 0)
(0.0624251 -0.000292649 0)
(0.0644845 -0.000139164 0)
(0.065907 -5.33828e-05 0)
(0.0669028 -8.77906e-06 0)
(0.0676146 1.23439e-05 0)
(0.068136 2.08283e-05 0)
(0.0685277 2.29406e-05 0)
(0.0688289 2.21235e-05 0)
(0.069065 2.01138e-05 0)
(0.0692529 1.77407e-05 0)
(0.0694044 1.53818e-05 0)
(0.0695277 1.32219e-05 0)
(0.069629 1.13084e-05 0)
(0.0697128 9.60231e-06 0)
(0.0697825 8.17517e-06 0)
(0.0698407 6.77337e-06 0)
(0.06989 5.81797e-06 0)
(0.0699304 4.45616e-06 0)
(0.0699682 3.92886e-06 0)
(0.0699946 2.48849e-06 0)
(0.0700285 2.11274e-06 0)
(0.0700431 9.09476e-07 0)
(0.0700782 1.3773e-07 0)
(0.0700832 -5.60157e-07 0)
(0.0701221 -2.38904e-06 0)
(-0.00955436 0.0292143 0)
(-0.0401519 0.0266879 0)
(-0.06429 0.0302135 0)
(-0.0956141 0.0198814 0)
(-0.0910517 -0.00951367 0)
(-0.075088 -0.0215526 0)
(-0.0441592 -0.0264826 0)
(-0.0190787 -0.0253234 0)
(0.00478154 -0.0218416 0)
(0.0238498 -0.0183078 0)
(0.0398442 -0.0146939 0)
(0.0528497 -0.0114212 0)
(0.0632806 -0.00862301 0)
(0.0714703 -0.00634693 0)
(0.0777754 -0.0045812 0)
(0.0825616 -0.00326871 0)
(0.0861712 -0.00232685 0)
(0.0888969 -0.00166781 0)
(0.0909698 -0.00121262 0)
(0.0925634 -0.000898465 0)
(0.0938038 -0.00067953 0)
(0.0947816 -0.00052428 0)
(0.0955613 -0.000411703 0)
(0.0961896 -0.000328122 0)
(0.0967003 -0.000264689 0)
(0.0971186 -0.00021559 0)
(0.0974632 -0.000177032 0)
(0.0977488 -0.000146109 0)
(0.0979861 -0.000121661 0)
(0.0981852 -0.000100933 0)
(0.0983501 -8.57487e-05 0)
(0.0984927 -7.05841e-05 0)
(0.0986057 -6.21909e-05 0)
(0.0987137 -5.04562e-05 0)
(0.0987872 -4.62381e-05 0)
(0.098876 -3.80486e-05 0)
(0.0989189 -3.57241e-05 0)
(0.0989989 -3.06298e-05 0)
(0.0990175 -2.98641e-05 0)
(0.0990959 -2.77828e-05 0)
(-0.0158183 0.0365258 0)
(-0.0310727 0.0414439 0)
(-0.0686205 0.0439005 0)
(-0.0903605 0.0280496 0)
(-0.0917701 -0.01525 0)
(-0.0754238 -0.0413661 0)
(-0.0427477 -0.0477777 0)
(-0.0151433 -0.0433158 0)
(0.0104523 -0.0366952 0)
(0.0295151 -0.0301355 0)
(0.0444138 -0.0243373 0)
(0.0560739 -0.0192757 0)
(0.0654774 -0.0149385 0)
(0.0730762 -0.0113427 0)
(0.0791354 -0.00848051 0)
(0.0838955 -0.00629024 0)
(0.0876021 -0.00466559 0)
(0.0904848 -0.00348399 0)
(0.0927364 -0.00263171 0)
(0.0945079 -0.00201601 0)
(0.0959137 -0.00156716 0)
(0.0970389 -0.00123536 0)
(0.097947 -0.000986018 0)
(0.0986854 -0.000795438 0)
(0.0992895 -0.000647457 0)
(0.0997868 -0.000530837 0)
(0.100198 -0.000438041 0)
(0.10054 -0.000362878 0)
(0.100824 -0.000302858 0)
(0.101064 -0.000251921 0)
(0.101261 -0.000213664 0)
(0.101433 -0.000176683 0)
(0.101568 -0.000154001 0)
(0.101699 -0.000126016 0)
(0.101787 -0.000112924 0)
(0.101892 -9.30886e-05 0)
(0.101945 -8.53899e-05 0)
(0.102037 -7.15304e-05 0)
(0.102061 -6.86208e-05 0)
(0.10215 -5.96496e-05 0)
(0.0139318 0.059011 0)
(-0.00132166 0.0638846 0)
(-0.0395059 0.0705754 0)
(-0.061363 0.041442 0)
(-0.0662003 -0.0183613 0)
(-0.060709 -0.0622573 0)
(-0.0369504 -0.0730709 0)
(-0.0112088 -0.0657348 0)
(0.0146195 -0.0546332 0)
(0.035933 -0.0429343 0)
(0.051855 -0.0335302 0)
(0.062901 -0.0262947 0)
(0.0708386 -0.0205708 0)
(0.0769398 -0.0159113 0)
(0.0818204 -0.0121432 0)
(0.0857503 -0.00918638 0)
(0.0888975 -0.00694024 0)
(0.0914088 -0.00527173 0)
(0.0934152 -0.0040443 0)
(0.0950257 -0.0031405 0)
(0.0963261 -0.00246934 0)
(0.0973829 -0.00196457 0)
(0.0982467 -0.00157943 0)
(0.0989564 -0.00128127 0)
(0.099542 -0.00104733 0)
(0.100027 -0.000861419 0)
(0.100431 -0.000712556 0)
(0.100768 -0.000591376 0)
(0.101048 -0.000494199 0)
(0.101286 -0.000411604 0)
(0.101482 -0.000348982 0)
(0.101654 -0.000289163 0)
(0.101788 -0.000251065 0)
(0.101918 -0.000206188 0)
(0.102006 -0.000183356 0)
(0.102111 -0.000151246 0)
(0.102163 -0.000137817 0)
(0.102255 -0.00011439 0)
(0.102279 -0.000109202 0)
(0.102367 -9.25935e-05 0)
(-0.00742124 0.0312253 0)
(-0.0154308 0.0735803 0)
(-0.0180642 0.0778599 0)
(-0.00500795 0.0465238 0)
(-0.0108578 -0.0117835 0)
(-0.0112071 -0.0642868 0)
(-0.00599508 -0.0856892 0)
(0.00714965 -0.0814881 0)
(0.0215684 -0.0714887 0)
(0.0385742 -0.0575428 0)
(0.0547264 -0.0438469 0)
(0.0672022 -0.0329351 0)
(0.0756597 -0.0250026 0)
(0.0812439 -0.0192014 0)
(0.0851784 -0.0147877 0)
(0.0881961 -0.0113677 0)
(0.0906339 -0.00873562 0)
(0.0926417 -0.00673859 0)
(0.0943019 -0.00523842 0)
(0.0956749 -0.00411325 0)
(0.0968107 -0.00326434 0)
(0.0977514 -0.00261705 0)
(0.098532 -0.00211722 0)
(0.0991809 -0.00172625 0)
(0.0997214 -0.0014168 0)
(0.100173 -0.00116906 0)
(0.10055 -0.000969503 0)
(0.100866 -0.000806274 0)
(0.101131 -0.00067481 0)
(0.101356 -0.000562842 0)
(0.101542 -0.000477403 0)
(0.101705 -0.000396173 0)
(0.101832 -0.000343516 0)
(0.101956 -0.000282633 0)
(0.10204 -0.000250635 0)
(0.10214 -0.000206775 0)
(0.10219 -0.000187956 0)
(0.102278 -0.000155337 0)
(0.1023 -0.000148 0)
(0.102384 -0.000123991 0)
(-0.0120819 0.0765298 0)
(0.0219753 0.0858408 0)
(0.0565434 0.0695816 0)
(0.0726132 0.0450474 0)
(0.0648065 -0.00758191 0)
(0.05738 -0.0617468 0)
(0.0484758 -0.0857486 0)
(0.0485759 -0.0828323 0)
(0.0514198 -0.0752291 0)
(0.0550962 -0.0656856 0)
(0.0615161 -0.0533144 0)
(0.0698787 -0.0407421 0)
(0.0778904 -0.0302771 0)
(0.0839395 -0.0224842 0)
(0.0879498 -0.0169138 0)
(0.0906012 -0.0129218 0)
(0.0925236 -0.00999885 0)
(0.0940611 -0.00781539 0)
(0.0953553 -0.00616442 0)
(0.0964609 -0.0049055 0)
(0.0974046 -0.00393731 0)
(0.0982069 -0.00318551 0)
(0.0988863 -0.00259574 0)
(0.0994602 -0.0021283 0)
(0.0999441 -0.00175438 0)
(0.100352 -0.00145249 0)
(0.100695 -0.00120769 0)
(0.100985 -0.00100643 0)
(0.101229 -0.000843623 0)
(0.101436 -0.000704615 0)
(0.101608 -0.000598015 0)
(0.101759 -0.000496884 0)
(0.101878 -0.00043061 0)
(0.101993 -0.000354739 0)
(0.102072 -0.000314165 0)
(0.102165 -0.000259208 0)
(0.102212 -0.000235324 0)
(0.102293 -0.000194009 0)
(0.102315 -0.000184602 0)
(0.102393 -0.000153579 0)
(-0.0432636 0.0266062 0)
(0.0494392 0.0140398 0)
(0.0883392 0.033631 0)
(0.120843 0.0429578 0)
(0.123358 0.00506588 0)
(0.124696 -0.0500127 0)
(0.10484 -0.0831549 0)
(0.0889639 -0.0861802 0)
(0.0890368 -0.0761223 0)
(0.0906627 -0.063541 0)
(0.087556 -0.0528545 0)
(0.0839245 -0.0436435 0)
(0.0839655 -0.0345939 0)
(0.0867605 -0.0262621 0)
(0.0899432 -0.0195725 0)
(0.0923944 -0.0147201 0)
(0.0941088 -0.0112991 0)
(0.0953754 -0.0088336 0)
(0.0964012 -0.00700035 0)
(0.0972803 -0.00560525 0)
(0.0980464 -0.00452707 0)
(0.0987129 -0.00368367 0)
(0.0992885 -0.00301673 0)
(0.0997826 -0.00248409 0)
(0.100204 -0.00205507 0)
(0.100564 -0.00170656 0)
(0.100868 -0.00142245 0)
(0.101127 -0.00118781 0)
(0.101346 -0.000997247 0)
(0.101533 -0.000834093 0)
(0.101689 -0.000708488 0)
(0.101826 -0.000589355 0)
(0.101934 -0.000510738 0)
(0.102039 -0.000421179 0)
(0.10211 -0.000372787 0)
(0.102195 -0.000307618 0)
(0.102238 -0.000279085 0)
(0.102313 -0.000229738 0)
(0.102332 -0.000218422 0)
(0.102404 -0.000180893 0)
(0.134699 0.0628691 0)
(0.129372 0.00692852 0)
(0.136044 -0.000347142 0)
(0.156027 0.0211187 0)
(0.16197 -0.00358632 0)
(0.170057 -0.0475626 0)
(0.163879 -0.0612633 0)
(0.138672 -0.0691822 0)
(0.11805 -0.076371 0)
(0.114739 -0.0671003 0)
(0.1167 -0.0491811 0)
(0.111072 -0.0373819 0)
(0.102231 -0.0314712 0)
(0.0967299 -0.0261568 0)
(0.0950331 -0.0204613 0)
(0.0952568 -0.0155031 0)
(0.0960552 -0.0118248 0)
(0.0968783 -0.00923671 0)
(0.0975988 -0.00738777 0)
(0.0982291 -0.00600409 0)
(0.0987932 -0.00492373 0)
(0.0993015 -0.00405845 0)
(0.099756 -0.00335689 0)
(0.100157 -0.00278467 0)
(0.100507 -0.00231632 0)
(0.10081 -0.00193133 0)
(0.101071 -0.00161476 0)
(0.101294 -0.0013516 0)
(0.101484 -0.00113685 0)
(0.101647 -0.000952307 0)
(0.101784 -0.000809725 0)
(0.101904 -0.000674342 0)
(0.102 -0.000584556 0)
(0.102092 -0.000482498 0)
(0.102156 -0.000426968 0)
(0.102231 -0.00035241 0)
(0.102269 -0.000319604 0)
(0.102336 -0.000262841 0)
(0.102353 -0.000249757 0)
(0.102417 -0.000206178 0)
(0.163722 0.0687976 0)
(0.166428 0.0171742 0)
(0.159885 -0.00166214 0)
(0.161458 0.0251811 0)
(0.18598 0.00365025 0)
(0.17944 -0.0482863 0)
(0.159049 -0.0660366 0)
(0.157334 -0.0554037 0)
(0.140394 -0.0572533 0)
(0.116207 -0.0623727 0)
(0.110668 -0.0516277 0)
(0.11426 -0.0352464 0)
(0.114026 -0.0252565 0)
(0.109213 -0.0211907 0)
(0.103925 -0.0186413 0)
(0.10043 -0.0157686 0)
(0.0988399 -0.0128177 0)
(0.0984548 -0.0102434 0)
(0.098634 -0.00818803 0)