/*--------------------------------*- C++ -*----------------------------------*\
| =========                 |                                                 |
| \\      /  F ield         | OpenFOAM: The Open Source CFD Toolbox           |
|  \\    /   O peration     | Version:  2112                                  |
|   \\  /    A nd           | Website:  www.openfoam.com                      |
|    \\/     M anipulation  |                                                 |
\*---------------------------------------------------------------------------*/
FoamFile
{
    version     2.0;
    format      ascii;
    arch        "LSB;label=32;scalar=64";
    class       volScalarField;
    location    "0.4";
    object      nut;
}
// * * * * * * * * * * * * * * * * * * * * * * * * * * * * * * * * * * * * * //

dimensions      [0 2 -1 0 0 0 0];

internalField   nonuniform List<scalar> 
1880
(
3.54646e-11
3.61254e-12
5.31476e-13
3.34221e-14
1.30775e-14
1.82414e-13
1.79783e-14
3.43387e-14
1.34858e-14
1.14123e-14
8.00379e-15
2.86209e-15
6.23938e-15
2.0043e-14
1.19272e-13
1.49327e-13
1.83721e-13
1.99757e-13
1.31696e-13
1.28356e-12
9.57181e-13
9.79681e-13
4.35773e-12
5.64409e-12
2.95223e-11
1.52089e-11
4.7417e-11
1.10229e-10
6.45752e-11
2.17498e-10
5.57008e-09
6.08943e-09
8.13129e-10
4.37943e-10
2.26998e-11
3.15093e-11
1.00928e-11
4.39225e-12
4.68298e-12
7.17203e-13
5.31068e-12
1.32661e-12
4.29649e-11
1.56327e-11
1.19912e-10
2.57878e-11
1.00301e-10
1.18878e-10
5.53669e-11
2.48513e-10
1.22847e-10
7.52333e-11
4.00948e-10
2.08549e-10
2.25119e-10
1.11643e-09
8.99891e-10
7.31659e-10
3.61124e-09
7.70555e-10
3.38848e-09
9.15591e-10
2.79866e-09
2.21976e-11
2.05226e-09
1.66586e-11
1.85497e-09
2.4877e-09
9.47476e-10
3.85795e-11
2.97112e-09
1.34428e-09
3.14928e-10
4.24217e-09
1.23077e-10
1.55746e-09
3.90762e-09
1.8395e-09
2.34692e-09
6.86934e-09
5.98984e-10
4.28663e-09
7.00845e-09
8.39023e-10
1.08951e-08
7.9018e-09
2.00223e-09
1.49905e-08
1.51719e-08
8.93861e-09
2.93298e-11
1.34285e-09
1.48419e-08
1.95763e-09
1.28661e-09
9.27258e-10
1.59654e-09
2.81366e-10
1.31405e-08
2.03113e-09
1.72778e-08
2.37352e-09
5.99711e-09
1.995e-09
5.21601e-09
2.98031e-09
3.38603e-08
2.10889e-09
4.0797e-10
7.08436e-09
3.91228e-09
9.19763e-09
7.82006e-09
7.48335e-09
1.41674e-08
1.62477e-08
1.6709e-08
1.69321e-08
2.6184e-08
3.06437e-08
1.15252e-09
7.60065e-10
3.78855e-09
3.47467e-10
1.20016e-09
7.29439e-10
1.28286e-11
1.91342e-09
5.8464e-09
2.94446e-09
4.13181e-09
3.54547e-09
2.96967e-09
4.57059e-09
2.18221e-08
4.69412e-09
3.64153e-08
3.97925e-09
1.84748e-08
5.71677e-09
7.35928e-11
7.45401e-09
3.09767e-09
8.01193e-09
7.241e-09
1.53368e-08
1.00539e-08
2.05368e-08
1.93219e-08
2.88685e-08
4.33823e-10
2.83287e-09
1.05994e-09
5.78646e-10
3.9444e-10
7.95722e-10
7.39292e-10
9.6579e-13
2.20986e-10
7.55561e-10
4.77082e-09
2.51259e-10
5.02244e-10
3.07144e-10
7.06657e-10
2.88039e-09
1.66709e-10
4.00423e-09
2.76821e-09
4.88967e-09
4.27841e-09
7.03921e-09
7.18566e-09
1.04836e-08
9.92536e-09
1.24758e-08
1.2805e-08
1.56005e-08
1.93779e-08
2.20425e-08
1.00684e-09
2.58287e-09
2.18818e-09
1.21134e-10
1.29076e-09
1.97168e-10
9.173e-10
7.75976e-10
5.72638e-10
7.22504e-10
5.59317e-10
4.88629e-10
1.3969e-09
4.81229e-10
2.98493e-09
1.67844e-09
2.62147e-09
2.44616e-09
4.18698e-09
4.04456e-09
4.79139e-09
5.40496e-09
7.51452e-09
7.53848e-09
9.29628e-09
1.17163e-08
1.19233e-08
1.50767e-08
1.70556e-08
2.02234e-08
6.6955e-10
2.25771e-09
1.25332e-09
8.7068e-11
1.38128e-09
2.6299e-10
1.5812e-09
2.4688e-10
1.30864e-09
1.8143e-09
2.32012e-09
1.33458e-09
2.69499e-09
1.87967e-09
4.21901e-09
3.42906e-09
3.93481e-09
4.00358e-09
5.58678e-09
5.1528e-09
5.93692e-09
6.24152e-09
8.48393e-09
8.30424e-09
1.01064e-08
1.1096e-08
1.32946e-08
1.40989e-08
1.79061e-08
1.77342e-08
5.10627e-10
1.42688e-09
6.20086e-10
3.27126e-10
1.05422e-09
5.88753e-10
1.75951e-09
6.30543e-10
1.92931e-09
2.02368e-09
3.34651e-09
2.16371e-09
3.27083e-09
2.58412e-09
4.34049e-09
2.72777e-09
4.1106e-09
3.64706e-09
5.40174e-09
5.24872e-09
6.1901e-09
6.24623e-09
8.18813e-09
8.23873e-09
9.64391e-09
1.10473e-08
1.26742e-08
1.35786e-08
1.63053e-08
1.72451e-08
3.88882e-10
1.04989e-09
7.08081e-10
4.95429e-10
1.38486e-09
9.69343e-10
1.89294e-09
1.16342e-09
2.41819e-09
3.01756e-09
3.69365e-09
2.58808e-09
3.37684e-09
2.97136e-09
4.3743e-09
3.41537e-09
4.41232e-09
4.25824e-09
5.76625e-09
5.65398e-09
6.54951e-09
6.58835e-09
8.35315e-09
8.4629e-09
9.87869e-09
1.08495e-08
1.28922e-08
1.33337e-08
1.61362e-08
1.62494e-08
2.20868e-10
6.26753e-10
6.77762e-10
9.30392e-10
1.33758e-09
1.32556e-09
2.0093e-09
1.57564e-09
2.47999e-09
3.49591e-09
3.40368e-09
2.87049e-09
3.13394e-09
3.08073e-09
3.865e-09
3.51674e-09
4.4438e-09
4.57827e-09
5.66202e-09
5.93759e-09
6.57796e-09
6.75099e-09
8.06496e-09
8.57184e-09
9.73314e-09
1.07303e-08
1.24257e-08
1.30029e-08
1.51996e-08
1.58027e-08
1.3958e-10
6.16964e-10
8.96442e-10
1.146e-09
1.56926e-09
1.62158e-09
2.14987e-09
1.89346e-09
2.73659e-09
3.12573e-09
3.52605e-09
2.74455e-09
3.35327e-09
3.24507e-09
4.11579e-09
3.8425e-09
4.72078e-09
4.70076e-09
5.91619e-09
5.94628e-09
6.78551e-09
6.97027e-09
8.16066e-09
8.63622e-09
9.85672e-09
1.05745e-08
1.22821e-08
1.27975e-08
1.47337e-08
1.5309e-08
1.00697e-10
5.93916e-10
9.59194e-10
1.20466e-09
1.55395e-09
1.77894e-09
2.16548e-09
2.08917e-09
2.50239e-09
3.25008e-09
2.9844e-09
2.91142e-09
3.42849e-09
3.45451e-09
3.90472e-09
4.17844e-09
4.8131e-09
4.99923e-09
5.62225e-09
6.13522e-09
6.89858e-09
7.15577e-09
8.02344e-09
8.73597e-09
9.73136e-09
1.04812e-08
1.18132e-08
1.25484e-08
1.40892e-08
1.48843e-08
3.86163e-11
5.83533e-10
9.37475e-10
1.36857e-09
1.70502e-09
1.88517e-09
2.25213e-09
2.21117e-09
2.63797e-09
2.97179e-09
3.17907e-09
3.13366e-09
3.58526e-09
3.68497e-09
4.23341e-09
4.37156e-09
5.0408e-09
5.08064e-09
5.89937e-09
6.225e-09
7.05145e-09
7.36538e-09
8.21878e-09
8.7931e-09
9.81224e-09
1.04092e-08
1.16446e-08
1.24074e-08
1.37572e-08
1.45541e-08
9.19441e-12
1.95735e-10
7.00054e-10
9.64999e-10
1.43969e-09
1.91626e-09
2.1168e-09
2.1043e-09
2.30568e-09
2.87686e-09
2.79437e-09
3.04978e-09
3.62352e-09
3.63383e-09
3.99972e-09
4.51108e-09
5.02858e-09
5.14601e-09
5.52471e-09
6.31413e-09
7.14804e-09
7.3658e-09
8.04546e-09
8.81855e-09
9.6288e-09
1.02617e-08
1.12197e-08
1.21073e-08
1.32976e-08
1.40951e-08
5.28121e-11
1.05878e-09
1.11995e-09
1.42181e-09
1.60263e-09
1.86193e-09
2.03018e-09
2.21279e-09
2.4329e-09
2.74189e-09
3.00635e-09
3.27324e-09
3.53361e-09
3.71975e-09
4.12188e-09
4.53789e-09
5.04024e-09
5.26983e-09
5.71533e-09
6.38542e-09
7.04135e-09
7.48826e-09
8.25383e-09
8.86113e-09
9.64935e-09
1.02175e-08
1.10846e-08
1.1932e-08
1.30385e-08
1.38856e-08
7.88195e-12
7.05959e-13
2.51693e-10
7.10392e-10
1.0652e-09
1.43407e-09
1.32887e-09
1.30841e-09
1.58064e-09
2.17765e-09
2.20432e-09
2.77435e-09
3.37035e-09
3.45445e-09
3.73948e-09
4.52824e-09
4.87986e-09
5.15854e-09
5.52275e-09
6.39446e-09
6.9318e-09
7.20401e-09
7.83883e-09
8.65538e-09
9.29545e-09
9.8582e-09
1.06071e-08
1.13836e-08
1.23628e-08
1.31402e-08
2.01195e-09
2.77216e-09
1.59472e-09
1.57116e-09
1.8984e-09
2.31549e-09
3.03436e-09
3.6864e-09
3.29178e-09
2.76925e-09
1.79859e-09
1.30443e-09
6.89483e-10
4.27212e-10
1.39545e-10
5.17549e-11
2.00467e-11
2.71701e-11
6.42022e-12
1.56699e-13
6.7295e-15
1.19235e-12
2.52597e-12
2.90677e-12
1.41334e-11
5.1746e-11
6.96281e-11
1.40046e-10
2.4526e-10
5.91946e-10
5.03971e-09
5.48042e-09
1.05715e-09
1.62562e-10
2.53509e-11
3.84806e-12
9.47032e-13
7.98361e-14
4.68102e-13
6.96674e-13
4.17331e-13
8.69719e-13
1.12903e-12
8.75997e-13
2.199e-12
2.55095e-12
1.86176e-12
2.03529e-12
4.47624e-12
7.4742e-12
5.96138e-12
4.97144e-12
6.51404e-12
6.99838e-12
7.3274e-12
8.37765e-12
8.69752e-12
7.37816e-12
5.30396e-12
3.16236e-12
3.4539e-11
4.58443e-12
2.65173e-13
1.20161e-14
6.31103e-14
2.65199e-14
4.49797e-15
4.43992e-16
3.35163e-16
1.49782e-16
2.15921e-16
2.65673e-15
3.19214e-15
1.58014e-15
6.93187e-16
3.45511e-15
1.21854e-14
2.62815e-14
1.56553e-14
4.28216e-15
5.71565e-15
4.65116e-14
1.27394e-13
1.18787e-13
4.8883e-14
1.60749e-14
1.07535e-14
2.73153e-14
5.60358e-14
6.22482e-14
4.06866e-09
3.70315e-10
7.58108e-10
2.38234e-10
7.31178e-12
6.30373e-11
5.46458e-12
3.15364e-11
2.02554e-10
1.43924e-09
6.29305e-09
1.87166e-08
5.01759e-09
1.35192e-08
4.73434e-09
1.99329e-08
3.59804e-10
4.86335e-08
7.71568e-10
1.10505e-07
1.54621e-08
4.73776e-08
3.05378e-08
1.42598e-08
2.32394e-08
6.84486e-08
1.05412e-08
3.32943e-08
6.84096e-08
7.82373e-08
3.65291e-08
2.49082e-08
4.28144e-08
3.56414e-08
2.28625e-08
4.48922e-08
4.3519e-08
6.43865e-09
3.55326e-08
4.76255e-08
3.29793e-08
3.09278e-08
3.49199e-08
3.46201e-08
2.64465e-08
3.50393e-08
4.06404e-08
3.99351e-08
2.81379e-08
4.12825e-08
3.63928e-08
2.4698e-08
3.1176e-08
3.08357e-08
2.81291e-08
3.24073e-08
3.73809e-08
3.93151e-08
2.97007e-08
3.30092e-08
2.82389e-08
2.39769e-08
2.6142e-08
2.78543e-08
2.83581e-08
2.93561e-08
3.37409e-08
3.62839e-08
2.81415e-08
2.80276e-08
2.95425e-08
2.19296e-08
2.5295e-08
2.68926e-08
2.67505e-08
2.75398e-08
3.03503e-08
3.3407e-08
2.89023e-08
2.41183e-08
2.43299e-08
2.09487e-08
2.30827e-08
2.43894e-08
2.50459e-08
2.58061e-08
2.82576e-08
3.01086e-08
2.65947e-08
2.23994e-08
2.3152e-08
1.95851e-08
2.19703e-08
2.30816e-08
2.31582e-08
2.42859e-08
2.62113e-08
2.70015e-08
2.46131e-08
2.18855e-08
2.02808e-08
1.86612e-08
2.05056e-08
2.15487e-08
2.20005e-08
2.26479e-08
2.3774e-08
2.49743e-08
2.2986e-08
2.00848e-08
1.89453e-08
1.77239e-08
1.94646e-08
2.02798e-08
2.05801e-08
2.14693e-08
2.21735e-08
2.23263e-08
2.09931e-08
1.93375e-08
1.72557e-08
1.68675e-08
1.83763e-08
1.92249e-08
1.94162e-08
2.00542e-08
2.04362e-08
2.06257e-08
1.94257e-08
1.77453e-08
1.65753e-08
1.62424e-08
1.74909e-08
1.80908e-08
1.83991e-08
1.8887e-08
1.89883e-08
1.87119e-08
1.80495e-08
1.67733e-08
1.53263e-08
1.54883e-08
1.65787e-08
1.72218e-08
1.73084e-08
1.76718e-08
1.75976e-08
1.73129e-08
1.65701e-08
1.54068e-08
1.52206e-08
1.51377e-08
1.59904e-08
1.63302e-08
1.65123e-08
1.66553e-08
1.65028e-08
1.61328e-08
1.56175e-08
1.46623e-08
1.39357e-08
1.41122e-08
1.50293e-08
1.5279e-08
1.55191e-08
1.53837e-08
1.539e-08
1.47003e-08
1.44341e-08
1.29432e-08
1.01677e-09
6.4477e-10
1.27021e-09
1.16934e-09
1.90073e-09
1.76661e-09
2.47712e-09
2.14377e-09
2.49132e-09
1.83872e-09
2.95108e-12
3.51313e-12
1.21502e-12
7.71365e-13
2.41247e-14
1.13415e-12
3.17588e-12
8.28878e-12
1.23103e-11
1.3964e-11
1.04721e-13
3.85437e-14
1.57108e-14
1.50902e-16
2.3376e-15
2.18716e-14
4.36819e-14
8.50667e-14
8.06446e-14
5.36386e-14
7.35129e-08
3.07097e-08
1.71262e-09
6.20715e-08
5.17561e-08
2.81738e-08
9.67074e-09
2.06105e-09
6.34486e-10
2.17169e-10
1.23881e-10
1.01149e-10
1.68179e-10
2.67047e-10
7.71412e-10
3.4451e-09
1.23231e-08
7.66354e-08
1.18351e-07
2.9224e-08
3.73635e-09
5.37572e-10
9.46157e-11
2.08383e-11
6.08368e-12
2.43824e-12
1.44733e-12
9.37763e-13
3.72165e-13
3.88936e-14
9.14121e-16
6.79465e-14
2.22206e-13
3.24854e-13
2.74397e-13
1.63288e-13
7.38563e-14
2.27099e-14
9.22565e-15
3.94969e-15
7.12526e-08
7.66313e-08
6.04757e-12
1.8442e-08
5.02704e-08
1.60845e-07
1.28961e-07
4.90615e-09
7.40096e-07
6.38736e-07
1.9967e-08
8.05165e-11
7.23286e-09
1.26108e-08
2.03569e-08
4.42464e-08
5.51454e-08
7.95543e-08
8.87304e-08
8.54028e-08
7.16518e-08
5.10256e-08
3.09161e-08
1.62796e-08
7.76748e-09
3.64825e-09
1.8732e-09
1.08616e-09
5.76686e-10
2.33331e-10
5.65195e-11
5.34137e-12
2.16124e-13
2.17064e-12
5.85963e-12
6.63192e-12
5.11128e-12
2.53746e-12
1.08618e-12
2.30942e-13
6.22024e-09
4.82189e-07
6.00584e-07
4.25968e-08
1.26695e-07
2.71992e-11
1.29994e-07
8.39806e-07
1.17734e-06
5.85592e-07
8.67194e-08
3.86637e-09
4.22516e-13
1.02765e-09
1.22064e-09
3.54272e-09
1.27263e-08
3.33806e-08
5.80858e-08
7.12758e-08
7.43832e-08
6.55657e-08
5.0356e-08
3.72515e-08
2.90584e-08
2.3286e-08
1.81745e-08
1.53199e-08
1.49891e-08
1.46756e-08
1.08094e-08
3.71315e-09
2.29663e-10
4.91648e-12
1.13398e-10
1.78055e-10
1.40674e-10
6.32229e-11
2.52916e-11
2.60126e-12
5.74974e-08
1.46314e-08
1.15656e-08
1.59721e-07
4.24534e-08
5.27886e-08
3.95562e-07
1.10335e-06
1.48079e-06
9.76226e-07
2.29276e-07
1.15385e-08
6.57311e-11
2.0086e-10
4.1747e-10
8.33362e-10
3.13076e-09
1.62013e-08
4.58607e-08
6.15451e-08
6.52136e-08
6.38568e-08
5.25528e-08
3.8085e-08
2.91079e-08
2.54807e-08
2.14938e-08
1.68949e-08
1.27622e-08
8.52374e-09
2.07901e-09
4.83536e-10
3.84068e-10
9.67785e-10
3.37734e-09
5.70995e-10
9.05787e-09
3.20863e-09
1.61185e-09
2.40551e-10
7.38875e-08
2.07119e-08
4.97936e-08
1.60182e-07
2.45769e-09
3.99596e-07
1.09223e-06
1.6418e-06
1.82499e-06
1.28723e-06
4.96289e-07
6.01953e-08
3.26781e-09
3.19693e-11
2.81135e-12
1.30401e-10
1.11137e-09
5.7932e-09
3.60761e-08
7.04777e-08
6.70806e-08
5.67212e-08
4.44452e-08
3.08276e-08
2.13678e-08
1.4733e-08
7.02657e-09
2.66148e-09
9.4408e-10
1.90828e-11
4.36336e-08
6.00957e-09
4.95874e-10
2.47348e-11
4.12978e-13
4.74017e-11
3.2222e-10
7.29041e-10
1.90275e-09
1.15311e-09
5.58019e-07
3.35199e-08
1.32244e-07
1.43394e-07
4.56342e-10
7.20264e-08
3.45085e-07
9.9872e-07
1.46546e-06
1.22688e-06
5.6656e-07
1.10867e-07
1.68296e-08
3.05317e-09
7.83264e-10
5.86514e-11
1.3938e-09
8.1143e-09
2.53e-08
6.48159e-08
6.53811e-08
4.94967e-08
3.4433e-08
1.91805e-08
1.442e-08
1.24931e-08
7.59959e-09
7.1556e-10
1.49883e-12
2.20294e-09
2.58833e-08
8.19002e-10
9.80254e-09
4.66474e-11
1.80224e-11
1.44351e-10
3.55338e-10
3.95905e-10
5.91047e-10
5.46866e-10
2.14445e-08
9.21432e-08
2.05505e-07
2.44014e-07
3.75647e-08
1.19729e-07
8.86038e-07
1.60208e-06
1.82253e-06
1.50662e-06
8.39591e-07
2.82462e-07
8.39233e-08
2.64005e-08
4.0845e-09
7.20555e-11
2.01061e-09
3.1715e-08
5.58429e-08
6.4145e-08
4.04139e-08
1.80219e-08
2.43947e-08
2.30243e-08
2.06034e-08
1.79748e-08
1.23128e-08
1.19661e-08
5.11174e-09
7.08751e-10
1.38238e-09
5.96282e-09
6.23372e-11
9.69542e-10
1.74509e-09
8.65966e-10
7.70966e-09
5.48053e-09
3.94763e-09
1.90449e-09
1.7553e-08
2.83252e-08
1.20011e-09
1.3025e-07
1.59557e-07
2.82769e-08
3.33195e-08
1.03237e-06
1.75577e-06
1.69953e-06
1.27248e-06
7.05826e-07
2.36384e-07
7.88083e-08
2.48599e-08
3.67007e-11
1.63806e-08
6.42924e-08
5.2005e-08
4.70326e-08
3.65705e-08
1.01878e-08
1.26458e-08
2.49678e-08
2.25221e-08
1.84437e-08
1.36088e-08
1.11353e-08
1.32749e-08
1.5614e-08
1.49143e-08
1.30201e-08
4.37433e-09
4.47245e-12
1.4116e-09
3.03007e-09
6.53225e-10
1.53886e-10
1.46078e-10
4.24982e-09
2.84734e-07
5.60131e-09
7.00353e-09
3.64467e-11
1.8911e-09
5.58957e-09
8.05612e-08
6.85743e-07
1.31571e-06
1.4738e-06
1.29975e-06
9.0828e-07
4.32123e-07
1.0976e-07
3.99295e-09
1.22904e-08
6.62983e-08
6.03269e-08
4.42001e-08
3.86862e-08
4.49622e-08
3.56957e-08
2.99391e-08
3.05432e-08
2.87838e-08
2.40501e-08
1.74496e-08
1.31843e-08
1.23007e-08
1.22948e-08
1.06997e-08
6.89389e-09
4.23822e-09
2.45819e-09
2.18333e-09
2.0019e-10
1.89002e-11
4.58275e-10
3.54448e-10
6.40948e-12
7.84211e-09
6.85431e-08
9.25948e-09
6.64956e-09
4.03922e-10
6.00522e-08
2.99409e-07
9.33362e-07
1.33936e-06
1.32409e-06
1.29317e-06
1.10229e-06
4.38009e-07
4.67666e-10
4.68018e-08
7.16926e-08
6.21707e-08
4.74913e-08
4.23664e-08
4.33028e-08
3.88914e-08
3.42126e-08
2.21782e-08
1.57704e-08
2.27993e-08
1.38063e-08
4.95543e-09
8.11998e-09
8.59113e-09
7.94544e-09
1.13155e-08
1.05278e-08
1.31329e-09
9.22571e-10
4.25309e-09
7.14766e-11
1.44426e-11
2.80882e-11
9.31804e-12
4.21786e-10
3.94236e-08
1.75374e-08
5.01168e-08
1.23913e-08
1.79907e-11
1.36726e-07
5.83355e-07
8.17116e-07
8.71344e-07
8.42369e-07
6.94041e-07
6.85674e-08
2.29232e-08
7.21447e-08
7.50056e-08
7.01989e-08
5.96912e-08
5.20615e-08
4.30306e-08
3.72251e-08
3.18633e-08
3.01073e-08
2.26783e-08
2.1686e-08
2.21357e-08
9.79068e-09
2.82069e-09
3.4328e-09
4.80153e-09
4.71338e-09
3.73394e-09
5.56931e-10
2.01037e-09
3.72868e-08
8.74487e-09
1.04565e-08
4.08641e-09
2.86611e-10
1.12029e-11
5.42179e-12
3.19869e-08
3.73915e-08
3.79439e-08
4.91848e-08
5.61271e-08
3.07631e-08
9.31959e-09
7.02876e-09
2.27696e-08
2.21858e-08
3.02775e-08
6.07984e-08
7.23363e-08
7.36454e-08
6.09388e-08
5.44329e-08
4.82995e-08
4.34298e-08
4.19882e-08
3.71711e-08
2.97351e-08
2.60659e-08
1.21928e-08
4.84265e-10
6.537e-09
1.76648e-08
1.61267e-08
1.52829e-08
1.06112e-08
1.69799e-09
2.07611e-09
6.07741e-09
8.41727e-08
1.09627e-07
6.56294e-08
4.36623e-10
1.23622e-08
2.27916e-08
1.21152e-08
2.04163e-10
2.56932e-08
2.63772e-08
3.36377e-08
4.4934e-08
4.87465e-08
4.88637e-08
5.20289e-08
5.37339e-08
5.0366e-08
5.38444e-08
5.97548e-08
5.79753e-08
5.51993e-08
5.7326e-08
5.29489e-08
4.5441e-08
4.72162e-08
4.39094e-08
3.34609e-08
3.16912e-08
2.77278e-08
2.53485e-08
2.51886e-08
2.2415e-08
2.04182e-08
1.88713e-08
1.33781e-08
8.84896e-09
9.02816e-09
9.82129e-09
9.62037e-09
1.05064e-08
1.02812e-08
6.62507e-09
5.15122e-09
5.75053e-09
3.23867e-10
4.29638e-12
1.13493e-08
1.31854e-10
2.64667e-08
3.09527e-08
3.11937e-08
3.84274e-08
4.00184e-08
4.1577e-08
4.59538e-08
5.03657e-08
4.4909e-08
4.78306e-08
5.3822e-08
4.71108e-08
4.48596e-08
4.61519e-08
4.7316e-08
4.11645e-08
3.5433e-08
3.96092e-08
3.50164e-08
2.88424e-08
2.65145e-08
2.51522e-08
2.31509e-08
2.16101e-08
1.75066e-08
1.59926e-08
1.07657e-08
4.79415e-09
6.12637e-09
5.03628e-09
6.05832e-10
1.12576e-08
3.1441e-09
3.97702e-09
9.6358e-10
6.62659e-08
1.37114e-09
1.93574e-09
3.07277e-12
2.46497e-09
2.58771e-08
3.03331e-08
2.73453e-08
3.10315e-08
3.21829e-08
3.409e-08
4.00291e-08
4.35674e-08
4.45901e-08
4.49456e-08
4.72118e-08
4.0335e-08
3.70249e-08
3.84351e-08
3.96054e-08
3.90142e-08
3.26339e-08
2.96743e-08
3.24003e-08
2.78491e-08
2.23809e-08
2.40496e-08
2.231e-08
1.52525e-08
1.39397e-08
1.47053e-08
1.33269e-08
5.04467e-09
1.4056e-09
7.80364e-09
2.63326e-09
2.32281e-09
6.53092e-09
1.83252e-09
2e-09
2.9641e-09
3.32197e-09
1.29291e-09
7.93862e-10
2.84553e-09
2.78043e-08
2.93871e-08
2.72464e-08
2.69674e-08
2.67646e-08
3.05731e-08
3.41614e-08
3.59443e-08
3.96716e-08
3.98235e-08
3.82738e-08
3.5923e-08
3.26985e-08
3.14593e-08
3.07346e-08
3.30483e-08
3.3566e-08
2.61616e-08
2.37288e-08
2.61275e-08
2.46669e-08
1.98974e-08
2.01847e-08
1.68402e-08
1.52022e-08
1.29698e-08
1.44564e-08
1.26875e-08
9.93253e-09
8.98318e-09
7.2856e-09
5.53887e-09
7.3696e-09
4.86282e-09
1.7816e-08
2.39644e-11
3.37366e-09
4.36886e-11
2.54546e-08
4.29443e-13
2.43257e-08
2.61208e-08
2.50412e-08
2.35507e-08
2.40529e-08
2.70844e-08
3.06361e-08
3.05711e-08
3.2236e-08
3.23896e-08
3.19586e-08
3.12883e-08
2.9723e-08
2.76579e-08
2.78734e-08
2.60849e-08
2.74647e-08
2.6869e-08
2.41302e-08
2.08186e-08
2.32591e-08
2.03909e-08
1.79906e-08
1.77972e-08
1.80728e-08
1.52489e-08
1.15987e-08
1.08835e-08
8.70996e-09
7.99242e-09
4.73934e-09
1.93945e-10
5.84947e-10
4.29951e-09
2.13861e-10
3.87814e-08
2.95573e-10
3.303e-09
1.85811e-10
9.42286e-11
2.18014e-08
2.3912e-08
2.30435e-08
2.16708e-08
2.15215e-08
2.34066e-08
2.62044e-08
2.75203e-08
2.74497e-08
2.72673e-08
2.54838e-08
2.59537e-08
2.57669e-08
2.46139e-08
2.44263e-08
2.43501e-08
2.17463e-08
2.2396e-08
2.42348e-08
2.13582e-08
1.85978e-08
1.93221e-08
1.91561e-08
1.65228e-08
1.47464e-08
1.35168e-08
1.13733e-08
1.05748e-08
8.38538e-09
8.08971e-09
8.19783e-09
5.18876e-09
3.06627e-09
3.09023e-09
2.77643e-09
7.08652e-10
2.76056e-09
3.39224e-09
3.72613e-09
2.27415e-09
2.02702e-08
2.09062e-08
2.02179e-08
1.97147e-08
1.9638e-08
2.05981e-08
2.20143e-08
2.34018e-08
2.31152e-08
2.29049e-08
2.33083e-08
2.12715e-08
2.12769e-08
2.26007e-08
2.10162e-08
2.03809e-08
2.18375e-08
2.05182e-08
1.93594e-08
2.0526e-08
2.00081e-08
1.81101e-08
1.76266e-08
1.67878e-08
1.49738e-08
1.37503e-08
1.29392e-08
1.22006e-08
9.95414e-09
7.64905e-09
6.81388e-09
6.53645e-09
6.46365e-09
5.1444e-09
3.8906e-09
2.42434e-09
2.28001e-09
1.77204e-09
2.00072e-09
2.55052e-09
1.79716e-08
1.87877e-08
1.83967e-08
1.75538e-08
1.7593e-08
1.83734e-08
1.87814e-08
1.9261e-08
1.99451e-08
1.93441e-08
1.91014e-08
1.93961e-08
1.851e-08
1.7987e-08
1.88511e-08
1.83079e-08
1.77913e-08
1.88991e-08
1.85291e-08
1.78995e-08
1.84854e-08
1.79975e-08
1.63724e-08
1.55148e-08
1.51981e-08
1.38897e-08
1.16202e-08
9.89404e-09
9.33246e-09
8.83507e-09
7.7886e-09
5.959e-09
4.25377e-09
2.9413e-09
2.70579e-09
2.49804e-09
3.11255e-09
3.11296e-09
3.81112e-09
2.87144e-09
1.67532e-08
1.68588e-08
1.63426e-08
1.60134e-08
1.5681e-08
1.58147e-08
1.65026e-08
1.64465e-08
1.63611e-08
1.68894e-08
1.64662e-08
1.61614e-08
1.66219e-08
1.59434e-08
1.54155e-08
1.64885e-08
1.63374e-08
1.60529e-08
1.72597e-08
1.77088e-08
1.69089e-08
1.66159e-08
1.65883e-08
1.55195e-08
1.38846e-08
1.27236e-08
1.19737e-08
1.0772e-08
9.16471e-09
7.47889e-09
6.47305e-09
5.67296e-09
5.24733e-09
4.24645e-09
3.70596e-09
2.76402e-09
2.70284e-09
2.25478e-09
2.49982e-09
2.43703e-09
1.50592e-08
1.50641e-08
1.46523e-08
1.41332e-08
1.39176e-08
1.38474e-08
1.3753e-08
1.40757e-08
1.41515e-08
1.39198e-08
1.43911e-08
1.43699e-08
1.37863e-08
1.41898e-08
1.41477e-08
1.34137e-08
1.40622e-08
1.48051e-08
1.45145e-08
1.44999e-08
1.47746e-08
1.40071e-08
1.26466e-08
1.15141e-08
1.05782e-08
9.10638e-09
7.39763e-09
5.92118e-09
5.09297e-09
4.40414e-09
3.68312e-09
2.70283e-09
1.93057e-09
1.27986e-09
1.23832e-09
1.21316e-09
1.87972e-09
1.87853e-09
2.45108e-09
1.91461e-09
1.42067e-08
1.39432e-08
1.33629e-08
1.28462e-08
1.24553e-08
1.22745e-08
1.22787e-08
1.22212e-08
1.24532e-08
1.28486e-08
1.2889e-08
1.30827e-08
1.3085e-08
1.21502e-08
1.1235e-08
1.0264e-08
8.28988e-09
6.27154e-09
4.93773e-09
3.37979e-09
1.94948e-09
1.1115e-09
6.65966e-10
3.00828e-10
1.12657e-10
4.47992e-11
3.49441e-11
2.57988e-11
2.2482e-11
1.08814e-11
1.15859e-11
1.56521e-11
4.84996e-11
9.22923e-11
1.83788e-10
2.40444e-10
2.97043e-10
2.78562e-10
2.68199e-10
2.07516e-10
1.26042e-08
1.24258e-08
1.19642e-08
1.13874e-08
1.0942e-08
1.07303e-08
1.0623e-08
1.06772e-08
1.07476e-08
1.06377e-08
1.03067e-08
9.35243e-09
7.46288e-09
5.06179e-09
2.62901e-09
7.80239e-10
6.75795e-11
2.08178e-13
7.95358e-11
3.43189e-10
6.03249e-10
7.31932e-10
7.57891e-10
6.92273e-10
4.97739e-10
3.18559e-10
1.88505e-10
1.00304e-10
3.93417e-11
1.12867e-11
1.88454e-12
1.71335e-13
3.70979e-13
1.69544e-12
6.01448e-12
1.118e-11
2.39569e-11
2.63183e-11
3.52244e-11
2.09399e-11
1.80946e-09
1.76911e-09
1.74784e-09
1.79276e-09
1.88636e-09
2.017e-09
2.14231e-09
2.24503e-09
2.26299e-09
2.12892e-09
1.83025e-09
1.40624e-09
8.74685e-10
3.89148e-10
1.04744e-10
5.71509e-12
4.76711e-12
7.71427e-11
2.06778e-10
3.20325e-10
3.60771e-10
3.05643e-10
2.17202e-10
1.55746e-10
1.07431e-10
6.52891e-11
2.93757e-11
1.05451e-11
2.92781e-12
8.44731e-13
1.28111e-13
4.089e-14
4.44986e-13
1.50132e-12
3.37009e-12
4.09615e-12
4.31722e-12
3.07831e-12
2.18127e-12
9.07901e-13
1.55216e-11
1.53407e-11
1.80803e-11
2.37022e-11
3.22162e-11
4.21342e-11
5.15458e-11
6.24155e-11
7.38562e-11
7.90312e-11
7.49997e-11
6.4726e-11
4.49756e-11
2.09283e-11
5.68485e-12
3.96333e-13
1.62843e-12
1.3223e-11
3.17299e-11
4.68195e-11
5.33223e-11
4.69383e-11
3.11741e-11
1.75743e-11
8.58578e-12
3.71029e-12
1.21046e-12
1.93543e-13
2.01933e-15
1.83476e-14
1.52248e-13
3.28748e-13
5.75847e-13
6.86687e-13
8.19119e-13
7.04829e-13
6.86253e-13
4.2728e-13
3.43432e-13
1.41433e-13
4.21521e-14
2.09723e-14
3.59101e-14
7.15181e-14
1.30237e-13
2.23473e-13
3.53277e-13
5.17859e-13
7.30326e-13
9.81722e-13
1.14668e-12
1.13045e-12
9.99967e-13
5.86714e-13
9.5089e-14
7.23923e-14
9.23967e-13
3.06596e-12
4.77239e-12
4.01533e-12
1.72333e-12
3.85846e-13
3.32871e-14
2.186e-15
4.45479e-14
1.14891e-13
1.91844e-13
2.19699e-13
2.06754e-13
1.51442e-13
1.06071e-13
6.73935e-14
4.31363e-14
2.43405e-14
1.31929e-14
5.21001e-15
2.34733e-15
4.75844e-16
5.94939e-16
4.2298e-15
)
;

boundaryField
{
    inlet
    {
        type            calculated;
        value           nonuniform List<scalar> 
20
(
1.75118e-34
2.88064e-32
3.16952e-33
7.42079e-34
2.58554e-33
2.02747e-34
1.04869e-33
1.61509e-34
1.61206e-34
1.65257e-33
1.53788e-33
8.9886e-34
4.1355e-34
7.12538e-35
6.72764e-36
6.84355e-35
4.69505e-35
5.73186e-33
6.1249e-33
1.47885e-34
)
;
    }
    outlet
    {
        type            calculated;
        value           nonuniform List<scalar> 
27
(
2.35269e-32
1.69244e-35
1.58833e-35
1.62454e-32
6.91056e-34
9.85883e-34
6.85011e-34
1.54183e-32
8.33461e-33
8.26338e-33
1.74087e-32
1.42932e-32
1.43498e-32
1.34024e-32
1.07292e-32
3.07682e-33
2.38383e-35
2.54552e-36
1.45296e-35
2.12081e-36
2.87534e-36
6.1809e-36
1.22027e-37
8.10779e-35
3.40609e-33
1.05495e-32
3.61641e-32
)
;
    }
    lowerWall
    {
        type            fixedValue;
        value           uniform 0;
    }
    upperWall
    {
        type            fixedValue;
        value           uniform 0;
    }
    defaultFaces
    {
        type            empty;
    }
}


// ************************************************************************* //
