/*--------------------------------*- C++ -*----------------------------------*\
| =========                 |                                                 |
| \\      /  F ield         | OpenFOAM: The Open Source CFD Toolbox           |
|  \\    /   O peration     | Version:  2112                                  |
|   \\  /    A nd           | Website:  www.openfoam.com                      |
|    \\/     M anipulation  |                                                 |
\*---------------------------------------------------------------------------*/
FoamFile
{
    version     2.0;
    format      ascii;
    arch        "LSB;label=32;scalar=64";
    class       volScalarField;
    location    "0.4";
    object      p;
}
// * * * * * * * * * * * * * * * * * * * * * * * * * * * * * * * * * * * * * //

dimensions      [0 2 -2 0 0 0 0];

internalField   nonuniform List<scalar> 
1880
(
0.00315306
0.00301969
0.00292722
0.00287874
0.00284932
0.0028295
0.0028099
0.00279244
0.00277719
0.00276386
0.00275564
0.00274922
0.00274733
0.00274606
0.00275368
0.00275966
0.00277516
0.0027975
0.00281905
0.00286007
0.00289765
0.00294783
0.00301557
0.00307939
0.00315855
0.00324649
0.00332711
0.00339879
0.00351121
0.00348943
0.00297301
0.00294174
0.00290168
0.00286444
0.00283514
0.00281386
0.00279604
0.00278142
0.00276775
0.00275574
0.0027454
0.00274089
0.00273307
0.0027366
0.00273725
0.0027468
0.00275573
0.00277754
0.0027956
0.00283235
0.00286463
0.00290898
0.00297093
0.0030264
0.00309729
0.00317913
0.00323519
0.00332827
0.00341366
0.00348481
0.00293999
0.00291922
0.0028895
0.00285748
0.00282959
0.00280745
0.00278839
0.00277366
0.00276053
0.00274757
0.00273747
0.0027303
0.00272244
0.00272147
0.00272051
0.00272718
0.00273155
0.00274878
0.00276171
0.00278875
0.00281469
0.00284585
0.00289567
0.00293192
0.00298593
0.00304349
0.00308736
0.00314067
0.00319567
0.00322396
0.00288301
0.00286964
0.00285308
0.00283268
0.00281128
0.0027925
0.00277284
0.0027598
0.00274528
0.00273389
0.00272198
0.00271429
0.00270505
0.00269976
0.00269833
0.00269796
0.00270175
0.00270764
0.00272013
0.00273495
0.00275174
0.0027731
0.00280397
0.00282609
0.00286207
0.00289113
0.00291088
0.00293587
0.00294929
0.0029396
0.00285462
0.00284399
0.00283169
0.0028171
0.00279941
0.00278207
0.0027627
0.00274867
0.00273369
0.00272103
0.00270778
0.00269881
0.00268717
0.00267911
0.00267385
0.00267015
0.00266823
0.00266832
0.00267434
0.00267927
0.00268674
0.00269644
0.00271046
0.00272161
0.0027316
0.0027393
0.00273744
0.00273168
0.00270799
0.0026713
0.002827
0.0028175
0.00280726
0.00279634
0.00278187
0.00276663
0.00274843
0.0027337
0.0027191
0.0027041
0.002691
0.00267897
0.0026668
0.00265439
0.00264678
0.0026386
0.00263129
0.00262509
0.00262393
0.00262114
0.00261812
0.00261573
0.00261694
0.00261111
0.00260378
0.00259166
0.00256777
0.00253456
0.00248778
0.00241808
0.00280583
0.00279763
0.0027887
0.00277993
0.00276732
0.00275361
0.00273589
0.00272076
0.00270537
0.00268883
0.00267418
0.00265998
0.00264566
0.00262995
0.00261873
0.00260648
0.00259338
0.00258139
0.00257275
0.00256237
0.00254907
0.00253624
0.00252351
0.00250497
0.00248097
0.00244997
0.00240715
0.00235377
0.00228196
0.00219096
0.00278821
0.00278124
0.00277299
0.0027648
0.00275342
0.00273986
0.00272297
0.00270653
0.00269106
0.00267239
0.00265634
0.00264003
0.00262292
0.00260451
0.00258924
0.00257274
0.00255473
0.00253633
0.00252095
0.00250263
0.00248062
0.00245721
0.00243295
0.00240187
0.00236323
0.00231611
0.00225829
0.00218527
0.00209735
0.00198862
0.00277417
0.00276833
0.00276027
0.00275227
0.00274115
0.00272767
0.00271077
0.00269335
0.00267715
0.00265653
0.00263884
0.00262025
0.00260036
0.00257914
0.00255964
0.00253944
0.0025161
0.00249182
0.00247003
0.00244432
0.00241398
0.00238119
0.00234599
0.00230395
0.00225271
0.00219199
0.00212031
0.00203353
0.00193112
0.0018087
0.0027636
0.00275849
0.00275066
0.00274212
0.00273097
0.00271675
0.00269959
0.00268101
0.00266356
0.0026414
0.00262139
0.00260093
0.002578
0.00255375
0.00253067
0.00250614
0.00247818
0.00244825
0.00242036
0.00238797
0.00234977
0.00230834
0.00226393
0.00221189
0.00215004
0.00207743
0.00199491
0.00189656
0.00178283
0.00165053
0.00275634
0.00275195
0.00274403
0.0027347
0.00272287
0.00270759
0.00268964
0.00266972
0.00265078
0.00262693
0.00260462
0.00258226
0.00255625
0.00252914
0.0025024
0.0024739
0.00244155
0.00240613
0.00237279
0.00233436
0.00228872
0.00223986
0.00218721
0.00212638
0.00205559
0.00197333
0.00188136
0.00177438
0.00165185
0.00151202
0.00275285
0.00274865
0.00274053
0.00273007
0.00271717
0.00270053
0.00268123
0.00266003
0.00263916
0.00261384
0.00258912
0.00256475
0.00253597
0.00250562
0.00247577
0.00244336
0.00240667
0.00236659
0.00232798
0.00228413
0.00223195
0.00217615
0.00211654
0.00204816
0.00196967
0.00187951
0.00177999
0.00166641
0.00153715
0.0013919
0.0027532
0.00274888
0.00274001
0.00272796
0.00271337
0.00269487
0.00267386
0.00265102
0.00262817
0.00260134
0.00257443
0.00254808
0.00251667
0.00248327
0.00245051
0.00241436
0.00237371
0.00232945
0.00228602
0.00223741
0.0021793
0.00211747
0.00205208
0.00197725
0.00189222
0.00179583
0.00169003
0.00157131
0.00143723
0.00128772
0.00275829
0.00275368
0.00274399
0.00273019
0.00271353
0.00269294
0.00266987
0.00264531
0.00262024
0.00259168
0.00256257
0.00253379
0.00249987
0.00246343
0.00242773
0.00238818
0.00234362
0.0022958
0.00224796
0.00219475
0.00213161
0.00206451
0.00199417
0.00191402
0.00182342
0.0017221
0.00161137
0.00148875
0.00135118
0.00119884
0.00276797
0.00276199
0.00275007
0.00273322
0.00271327
0.00268985
0.00266434
0.00263797
0.00261097
0.00258093
0.00255009
0.00251928
0.00248324
0.00244425
0.00240609
0.00236362
0.00231571
0.00226492
0.00221318
0.00215578
0.00208847
0.00201703
0.00194256
0.00185794
0.00176254
0.00165733
0.00154287
0.00141725
0.00127738
0.00112286
0.00278682
0.00277945
0.00276472
0.00274382
0.00271972
0.002693
0.00266489
0.00263666
0.00260781
0.00257614
0.00254342
0.0025101
0.00247166
0.00243003
0.00238885
0.00234335
0.00229222
0.00223866
0.00218332
0.0021217
0.00205088
0.00197594
0.00189774
0.00180934
0.00171008
0.00160193
0.00148469
0.00135649
0.00121489
0.00105986
0.00280739
0.0027957
0.00277523
0.0027487
0.00272032
0.00269092
0.002661
0.00263158
0.00260126
0.00256804
0.00253353
0.00249786
0.00245732
0.00241385
0.0023706
0.00232286
0.00226945
0.00221388
0.00215567
0.00209064
0.00201732
0.00193975
0.00185805
0.00176637
0.00166436
0.00155431
0.00143539
0.00130551
0.00116249
0.00100568
0.00286058
0.0028386
0.00280425
0.00276628
0.00273089
0.00269779
0.00266606
0.00263511
0.00260278
0.00256746
0.00253083
0.00249271
0.00245043
0.00240559
0.00236012
0.00231024
0.00225504
0.00219724
0.00213567
0.00206697
0.00199142
0.00191144
0.00182622
0.00173174
0.00162776
0.00151587
0.00139521
0.00126384
0.00112081
0.000965832
0.00288945
0.00285524
0.0028103
0.00276723
0.00272989
0.00269672
0.00266467
0.00263257
0.00259842
0.00256172
0.00252389
0.00248372
0.00244004
0.00239446
0.00234701
0.00229484
0.00223775
0.00217798
0.00211388
0.00204307
0.00196654
0.00188454
0.00179588
0.00169988
0.0015961
0.00148419
0.00136264
0.00122974
0.00108494
0.000928404
0.00306899
0.00292963
0.00283248
0.00277789
0.00274215
0.00270872
0.00267401
0.00263845
0.0026014
0.00256314
0.00252431
0.00248342
0.00243964
0.00239336
0.00234411
0.002291
0.00223375
0.00217271
0.00210662
0.00203475
0.0019575
0.00187447
0.00178449
0.00168738
0.00158232
0.00146891
0.00134646
0.0012142
0.0010717
0.000918771
0.00362911
0.00363593
0.00326815
0.00290825
0.00230377
0.00172831
0.00093416
6.17559e-05
-0.00116181
-0.00272827
0.00359921
0.00342866
0.00293126
0.00250638
0.00186856
0.00123919
0.000465797
-0.000523755
-0.00157198
-0.00292477
0.00324782
0.00303258
0.00256787
0.00221555
0.0015983
0.00106606
0.000291045
-0.000516487
-0.00151689
-0.00247247
0.00293923
0.0026986
0.0022923
0.00184255
0.00132484
0.000712976
3.61129e-05
-0.000771164
-0.00163762
-0.00247514
0.00261709
0.00236939
0.0019602
0.00157024
0.00107301
0.000538209
-8.69877e-05
-0.00079826
-0.00159185
-0.00231509
0.00234171
0.00208149
0.00173289
0.00131318
0.000873076
0.000335816
-0.000239836
-0.000893379
-0.00160014
-0.00225315
0.00208867
0.00183946
0.00149259
0.00110501
0.000687008
0.000201171
-0.000332374
-0.000925089
-0.00155568
-0.00214519
0.00186985
0.0016223
0.00130461
0.000927311
0.000536836
8.15979e-05
-0.00041571
-0.000961158
-0.00152397
-0.0020625
0.0016742
0.00143862
0.0011312
0.00077821
0.000406482
-1.15627e-05
-0.00047309
-0.000976775
-0.00147974
-0.0019664
0.00150624
0.00127874
0.000988229
0.000653667
0.000302302
-8.79941e-05
-0.000515739
-0.000980194
-0.00143613
-0.00187981
0.00135933
0.00114045
0.000863341
0.000547922
0.000214758
-0.000150096
-0.000547001
-0.000973892
-0.0013915
-0.00179731
0.00123436
0.00102336
0.000760645
0.000462045
0.000146669
-0.000196463
-0.000566776
-0.000959759
-0.00134473
-0.00171945
0.00112585
0.000921153
0.000671042
0.000388255
8.87053e-05
-0.000234634
-0.000580888
-0.000943501
-0.00130053
-0.0016487
0.0010355
0.000837704
0.000600045
0.000331743
4.67691e-05
-0.000259064
-0.00058423
-0.000921644
-0.00125512
-0.00158168
0.000956678
0.00076278
0.000535446
0.0002804
8.86025e-06
-0.000280907
-0.000586727
-0.000901957
-0.00121495
-0.00152249
0.000894648
0.000706809
0.000489525
0.000246343
-1.33291e-05
-0.000289502
-0.000579354
-0.00087719
-0.0011741
-0.00146697
0.000837791
0.000651651
0.000442226
0.000210294
-3.73085e-05
-0.000299836
-0.000574353
-0.000856497
-0.00113916
-0.00141911
0.000800243
0.000618651
0.000416543
0.00019346
-4.50662e-05
-0.000297714
-0.000561301
-0.000832532
-0.00110537
-0.00137617
0.000760797
0.000579841
0.000383774
0.000171009
-5.61055e-05
-0.000296912
-0.000548577
-0.000809267
-0.001074
-0.00133771
0.000754573
0.000574803
0.000380042
0.000170135
-5.36125e-05
-0.000291036
-0.000539077
-0.000796631
-0.00105861
-0.00132249
-0.0054483
-0.00580047
-0.00589177
-0.00598959
-0.00616831
-0.00726094
-0.00950048
-0.0120029
-0.0135413
-0.013832
-0.0128946
-0.0111277
-0.00890774
-0.00653929
-0.00426004
-0.00208229
-0.000233203
0.0012178
0.00221419
0.00268384
0.00280055
0.0026727
0.00243137
0.00215531
0.00188656
0.0016432
0.00142981
0.00124182
0.00107286
0.000916095
0.000766565
0.000623967
0.000491177
0.000373286
0.000273763
0.000193496
0.000130561
8.16262e-05
4.35383e-05
1.23755e-05
-0.0055911
-0.00591175
-0.00600428
-0.00587272
-0.00649836
-0.00806672
-0.0105133
-0.0129769
-0.0143979
-0.0145221
-0.0134469
-0.0115461
-0.0092409
-0.00682046
-0.00453976
-0.00236688
-0.00048271
0.000999934
0.00204066
0.00255247
0.00269718
0.00259131
0.00236475
0.00210055
0.00184203
0.00160732
0.00140039
0.00121694
0.0010499
0.000895298
0.000748277
0.000609036
0.00048001
0.000365766
0.000269682
0.000191932
0.000130729
8.26385e-05
4.44593e-05
1.31974e-05
-0.00565184
-0.00589893
-0.00601036
-0.00634628
-0.00721764
-0.00922732
-0.0118053
-0.0142945
-0.0156549
-0.0156432
-0.0143471
-0.0122038
-0.00977866
-0.0073069
-0.00500932
-0.00286011
-0.0009547
0.000584377
0.00167702
0.00225852
0.00245061
0.00238858
0.00219757
0.00196262
0.00172909
0.00151494
0.00132338
0.00115152
0.000995781
0.000851737
0.000717076
0.00059042
0.00047425
0.00037017
0.000280225
0.000204881
0.000143285
9.31744e-05
5.17408e-05
1.63109e-05
-0.00519976
-0.00533276
-0.00528054
-0.00589337
-0.00769981
-0.0103365
-0.0130453
-0.0155273
-0.0168415
-0.0166782
-0.0152062
-0.0128876
-0.0103517
-0.00782057
-0.00551303
-0.00338826
-0.00147225
8.11394e-05
0.00121464
0.00186112
0.00210619
0.00209997
0.00196321
0.00177485
0.00157932
0.00139536
0.00122762
0.00107403
0.000931941
0.000799819
0.000676742
0.000561604
0.000455749
0.000360429
0.000277443
0.000206698
0.000147229
9.7303e-05
5.46051e-05
1.72956e-05
-0.00543874
-0.00573861
-0.00533261
-0.00606604
-0.00796003
-0.0108415
-0.013628
-0.0162326
-0.0175956
-0.0174443
-0.0158909
-0.0134646
-0.0108595
-0.00831796
-0.00599891
-0.00387975
-0.00197753
-0.000421876
0.000717841
0.0014022
0.00169689
0.00174941
0.00167629
0.00154652
0.00139864
0.00125117
0.00111091
0.000978874
0.000854458
0.000737278
0.00062737
0.000524908
0.000430406
0.0003454
0.000270482
0.000205738
0.00014999
0.000101654
5.86863e-05
1.94739e-05
-0.00460101
-0.00540681
-0.00446611
-0.00545195
-0.00781744
-0.0109367
-0.013873
-0.0164804
-0.0178075
-0.0176365
-0.0160897
-0.0137
-0.0111294
-0.00864167
-0.00634641
-0.00425881
-0.00239655
-0.000874844
0.000243253
0.000939224
0.00127693
0.00138658
0.00137757
0.00130855
0.00121103
0.00110203
0.000990202
0.000880384
0.000774735
0.000674169
0.000579055
0.000489151
0.000404549
0.000327604
0.000259324
0.00019978
0.000147403
0.000100741
5.82266e-05
1.93103e-05
-0.00467563
-0.00539379
-0.00444971
-0.00520967
-0.00743024
-0.0105758
-0.0134516
-0.0159181
-0.0171779
-0.0170667
-0.015679
-0.0134955
-0.0110983
-0.00873654
-0.00651479
-0.00448368
-0.00269147
-0.00124881
-0.000200951
0.000477603
0.000857473
0.00103033
0.00108661
0.00107651
0.0010251
0.000951613
0.000867698
0.000780533
0.000693545
0.000608264
0.000525859
0.000446624
0.000371487
0.000302216
0.000240501
0.000186754
0.000139634
9.74581e-05
5.78271e-05
1.99323e-05
-0.00483232
-0.00363773
-0.00383056
-0.00473273
-0.00698875
-0.00980677
-0.0124025
-0.0145924
-0.0157775
-0.0158321
-0.0147838
-0.0129478
-0.0107902
-0.00859097
-0.00648132
-0.00455702
-0.00288499
-0.0015403
-0.000564035
6.90532e-05
0.000461241
0.000686557
0.000800166
0.00084369
0.00083874
0.000799914
0.000741604
0.000676017
0.000608269
0.000539427
0.000470661
0.000402783
0.000337196
0.000275779
0.000220874
0.000171977
0.000127767
8.78107e-05
5.0575e-05
1.67884e-05
-0.00385595
-0.00433752
-0.00473692
-0.00510759
-0.00667291
-0.00923032
-0.0115158
-0.0133717
-0.0143912
-0.0144656
-0.0136587
-0.0121261
-0.0101809
-0.00815254
-0.00621371
-0.00445505
-0.00296414
-0.00177349
-0.00088036
-0.000256897
0.000152743
0.000406478
0.000550219
0.000621383
0.000645539
0.000636845
0.000605604
0.000562334
0.000513836
0.000462455
0.000408687
0.000352587
0.000296669
0.00024432
0.000197279
0.000154852
0.000116382
8.15627e-05
4.88837e-05
1.67885e-05
-0.00342307
-0.00390868
-0.00437373
-0.00515984
-0.00660343
-0.00866283
-0.010538
-0.0120007
-0.0128027
-0.0128757
-0.0122381
-0.0109377
-0.00923269
-0.00743475
-0.00574572
-0.00424446
-0.00296999
-0.00193205
-0.00113546
-0.000555138
-0.000142831
0.000140981
0.000319754
0.00041768
0.000463509
0.000474106
0.000462978
0.000440443
0.00041095
0.000376127
0.000337354
0.000295274
0.000251474
0.000208919
0.000169934
0.00013471
0.000101074
6.9208e-05
3.93272e-05
1.23901e-05
-0.00319269
-0.0037329
-0.00438959
-0.00522939
-0.0063707
-0.00787758
-0.00929975
-0.0103914
-0.0109953
-0.011055
-0.0105652
-0.00952478
-0.0081364
-0.00667822
-0.00530117
-0.00405168
-0.00296703
-0.0020591
-0.00132837
-0.000783511
-0.000393693
-0.000117418
7.27197e-05
0.000198763
0.000277016
0.000316298
0.00032843
0.000325219
0.000312206
0.000291597
0.00026601
0.000236396
0.000204102
0.000173237
0.000144983
0.000117101
8.8191e-05
6.17206e-05
3.7123e-05
1.30636e-05
-0.00297304
-0.00353321
-0.0041749
-0.00496102
-0.00588651
-0.00698823
-0.00807993
-0.00892304
-0.00939497
-0.0094638
-0.00909633
-0.00829341
-0.0072058
-0.00604134
-0.00491635
-0.00387582
-0.0029483
-0.00215249
-0.00149749
-0.000990433
-0.000612048
-0.000331375
-0.000129141
1.07839e-05
0.000106122
0.000167362
0.000201677
0.000217029
0.000219197
0.000211872
0.000197876
0.000178212
0.000155433
0.000132485
0.000110478
8.92582e-05
6.72268e-05
4.58807e-05
2.51948e-05
7.42678e-06
-0.00280178
-0.00334427
-0.00394482
-0.00464742
-0.00542484
-0.00627611
-0.00711678
-0.00777535
-0.00814043
-0.00818082
-0.00790137
-0.00729958
-0.00645232
-0.00551367
-0.00458877
-0.00371246
-0.00291504
-0.00221585
-0.00162709
-0.00116021
-0.00080054
-0.000521075
-0.000306693
-0.000149785
-3.97453e-05
3.61621e-05
8.66616e-05
0.000116874
0.000131207
0.00013529
0.000133658
0.000127537
0.000116807
0.000102252
8.69894e-05
7.08199e-05
5.4538e-05
3.74505e-05
2.17529e-05
7.62565e-06
-0.00264737
-0.00315465
-0.00370415
-0.00432753
-0.00499646
-0.00567977
-0.00632557
-0.00682928
-0.00711095
-0.00715089
-0.0069435
-0.00648278
-0.00582662
-0.0050704
-0.00429936
-0.00355748
-0.0028722
-0.00226509
-0.00173953
-0.00130341
-0.000957053
-0.000683951
-0.000470493
-0.000307786
-0.000187154
-0.000100492
-3.90597e-05
4.05454e-06
3.35705e-05
5.21972e-05
6.24897e-05
6.66157e-05
6.58309e-05
6.09002e-05
5.26362e-05
4.29831e-05
3.40635e-05
2.5116e-05
1.50102e-05
4.48958e-06
-0.00250805
-0.00297086
-0.00347603
-0.00403283
-0.0046094
-0.00516941
-0.00567576
-0.00607095
-0.00629941
-0.0063356
-0.00617622
-0.00581892
-0.00530093
-0.00468702
-0.00404403
-0.00342015
-0.00283365
-0.0022956
-0.00181978
-0.00141869
-0.00109424
-0.000833214
-0.000622071
-0.000453864
-0.000322287
-0.000220714
-0.000144203
-8.78445e-05
-4.65056e-05
-1.66924e-05
3.86035e-06
1.71231e-05
2.49744e-05
2.85053e-05
2.8643e-05
2.73316e-05
2.31173e-05
1.7209e-05
9.75984e-06
2.67607e-06
-0.00237954
-0.0028028
-0.0032646
-0.00375837
-0.00425566
-0.00472504
-0.0051362
-0.00545055
-0.00563514
-0.00567094
-0.00554735
-0.00526698
-0.00485444
-0.0043577
-0.00382552
-0.00329168
-0.00278111
-0.00231152
-0.00189029
-0.00152324
-0.00121576
-0.000962589
-0.00075257
-0.000579691
-0.000441475
-0.000332388
-0.000246012
-0.000178083
-0.000125813
-8.59927e-05
-5.56471e-05
-3.26892e-05
-1.65076e-05
-6.72729e-06
-1.57396e-06
1.1689e-06
3.33826e-06
2.84822e-06
1.90539e-06
4.99263e-07
-0.00226238
-0.00264976
-0.00306754
-0.00350746
-0.00394194
-0.00434275
-0.00468495
-0.00494232
-0.00509464
-0.00512898
-0.00503456
-0.00481066
-0.00447911
-0.00407324
-0.00362863
-0.0031754
-0.002736
-0.00232455
-0.00194779
-0.00161114
-0.00132168
-0.00107875
-0.000874408
-0.00070179
-0.000557963
-0.000440513
-0.000345041
-0.000267143
-0.000204202
-0.000154285
-0.000115174
-8.41881e-05
-5.93185e-05
-4.00502e-05
-2.58285e-05
-1.50451e-05
-8.53964e-06
-4.68176e-06
-2.12774e-06
-9.77197e-07
-0.002155
-0.0025107
-0.0028886
-0.00328204
-0.0036644
-0.00401158
-0.00430249
-0.00451817
-0.00464877
-0.00468129
-0.00460768
-0.00442868
-0.00415997
-0.00382611
-0.00345547
-0.00307259
-0.00269319
-0.00232994
-0.00199277
-0.00168673
-0.00141696
-0.00118432
-0.000983223
-0.000809147
-0.000660359
-0.000535069
-0.000430488
-0.000343648
-0.000271612
-0.000211752
-0.000162328
-0.000122426
-9.1456e-05
-6.80945e-05
-4.97542e-05
-3.54559e-05
-2.3536e-05
-1.44305e-05
-7.46792e-06
-2.28799e-06
-0.00205555
-0.00238477
-0.00272849
-0.00308157
-0.00342081
-0.0037255
-0.00397851
-0.00416522
-0.00427718
-0.00430851
-0.00425245
-0.00410834
-0.00388918
-0.00361473
-0.00330505
-0.00297967
-0.00265314
-0.00233547
-0.00203493
-0.00175656
-0.00150441
-0.00128142
-0.00108503
-0.000911437
-0.000759585
-0.000628867
-0.000516874
-0.000421201
-0.000340354
-0.00027277
-0.000216501
-0.000169573
-0.000130326
-9.80509e-05
-7.21021e-05
-5.17676e-05
-3.54492e-05
-2.28399e-05
-1.26702e-05
-4.36622e-06
-0.001965
-0.00227206
-0.00258625
-0.00290477
-0.00320857
-0.00347902
-0.0037022
-0.00386717
-0.00396676
-0.00399616
-0.00395231
-0.00383716
-0.00365884
-0.00343197
-0.00317381
-0.00289894
-0.00261834
-0.00234093
-0.00207358
-0.00182088
-0.00158632
-0.00137266
-0.00117987
-0.00100628
-0.000850689
-0.000712747
-0.000592142
-0.000487881
-0.000398106
-0.00032072
-0.00025473
-0.000199822
-0.000154956
-0.00011855
-8.90291e-05
-6.49869e-05
-4.51759e-05
-2.9065e-05
-1.59086e-05
-5.06885e-06
-0.00188248
-0.00217093
-0.00246081
-0.00275053
-0.00302466
-0.00326712
-0.00346654
-0.00361393
-0.00370364
-0.0037328
-0.00369955
-0.00360623
-0.00346096
-0.00327497
-0.00306033
-0.00282884
-0.00258969
-0.00234957
-0.00211333
-0.00188446
-0.00166613
-0.00146128
-0.00127114
-0.00109622
-0.000937159
-0.000793745
-0.000665546
-0.000552776
-0.000455212
-0.000371358
-0.000299357
-0.000237869
-0.000185818
-0.000142411
-0.000106522
-7.75358e-05
-5.40676e-05
-3.51747e-05
-1.94317e-05
-6.47119e-06
-0.00180856
-0.00208172
-0.0023517
-0.00261739
-0.00286718
-0.00308686
-0.00326613
-0.00339903
-0.00348076
-0.0035092
-0.00348441
-0.00340917
-0.00329072
-0.00313867
-0.00296195
-0.00276938
-0.00256827
-0.00236279
-0.0021555
-0.00194903
-0.00174593
-0.00154894
-0.00136067
-0.00118356
-0.0010194
-0.000868882
-0.000732576
-0.000611203
-0.000504157
-0.000410435
-0.000329728
-0.000261598
-0.000204602
-0.000157183
-0.000117888
-8.57808e-05
-5.96064e-05
-3.83892e-05
-2.09381e-05
-6.68956e-06
-0.00174265
-0.00200358
-0.00225745
-0.00250353
-0.00273283
-0.00293358
-0.00309673
-0.00321714
-0.00329179
-0.00331919
-0.0033003
-0.0032394
-0.00314333
-0.00301991
-0.00287679
-0.00272046
-0.00255452
-0.00238114
-0.00220217
-0.00201836
-0.00182982
-0.00163887
-0.00145017
-0.00126897
-0.0010986
-0.000940056
-0.000794388
-0.000663612
-0.000548525
-0.000447752
-0.000360461
-0.00028595
-0.00022319
-0.000170809
-0.000127522
-9.23181e-05
-6.38756e-05
-4.10867e-05
-2.25888e-05
-7.35211e-06
-0.00168525
-0.00193696
-0.00217852
-0.00240873
-0.00262032
-0.00280397
-0.00295315
-0.0030631
-0.00313088
-0.00315638
-0.00314179
-0.00309154
-0.00301347
-0.00291572
-0.00280356
-0.00268028
-0.0025482
-0.00240733
-0.00225542
-0.00209137
-0.00191585
-0.00173102
-0.00154136
-0.00135388
-0.00117433
-0.00100582
-0.000850408
-0.000710141
-0.000585381
-0.000476186
-0.000381705
-0.000301199
-0.000233605
-0.00017745
-0.000131396
-9.40728e-05
-6.42401e-05
-4.04994e-05
-2.16976e-05
-6.62308e-06
-0.00163582
-0.00188163
-0.00211508
-0.00233395
-0.00253199
-0.00270125
-0.00283706
-0.00293665
-0.00299767
-0.00302007
-0.00300682
-0.00296428
-0.00290111
-0.00282471
-0.00274007
-0.00265024
-0.00255291
-0.00244285
-0.00231461
-0.00216651
-0.0019988
-0.00181483
-0.00162178
-0.00142833
-0.00124073
-0.00106283
-0.000897015
-0.000746107
-0.00061255
-0.000496366
-0.000396388
-0.000311271
-0.000239833
-0.000180633
-0.000132325
-9.34715e-05
-6.27696e-05
-3.87307e-05
-2.03106e-05
-5.92781e-06
-0.00159337
-0.00183566
-0.00206318
-0.0022728
-0.00245992
-0.00261932
-0.00274604
-0.0028372
-0.00289103
-0.00290892
-0.00289549
-0.00285763
-0.0028052
-0.00274724
-0.00268782
-0.00262834
-0.0025667
-0.00248948
-0.00238405
-0.00224598
-0.00207772
-0.00188674
-0.00168323
-0.00147878
-0.00128093
-0.00109395
-0.000920602
-0.000763568
-0.000624467
-0.000503733
-0.00040017
-0.000312326
-0.000238692
-0.000177924
-0.000128743
-8.95316e-05
-5.90224e-05
-3.53916e-05
-1.79148e-05
-4.62874e-06
-0.00158
-0.00182088
-0.00204399
-0.00224787
-0.00242903
-0.00258268
-0.00270427
-0.00279062
-0.00284038
-0.0028555
-0.00284119
-0.00280471
-0.00275569
-0.00270331
-0.00265234
-0.00260429
-0.00255423
-0.00248812
-0.00239254
-0.00226242
-0.00209896
-0.00190936
-0.00170467
-0.00149731
-0.00129556
-0.00110517
-0.000929044
-0.000769552
-0.000628214
-0.000505751
-0.000400951
-0.000312369
-0.000238114
-0.000177029
-0.000127447
-8.80826e-05
-5.73354e-05
-3.38655e-05
-1.66364e-05
-3.85362e-06
)
;

boundaryField
{
    inlet
    {
        type            zeroGradient;
    }
    outlet
    {
        type            fixedValue;
        value           uniform 0;
    }
    lowerWall
    {
        type            zeroGradient;
    }
    upperWall
    {
        type            zeroGradient;
    }
    defaultFaces
    {
        type            empty;
    }
}


// ************************************************************************* //
