/*--------------------------------*- C++ -*----------------------------------*\
| =========                 |                                                 |
| \\      /  F ield         | OpenFOAM: The Open Source CFD Toolbox           |
|  \\    /   O peration     | Version:  2112                                  |
|   \\  /    A nd           | Website:  www.openfoam.com                      |
|    \\/     M anipulation  |                                                 |
\*---------------------------------------------------------------------------*/
FoamFile
{
    version     2.0;
    format      ascii;
    arch        "LSB;label=32;scalar=64";
    class       surfaceScalarField;
    location    "0.4";
    object      phi;
}
// * * * * * * * * * * * * * * * * * * * * * * * * * * * * * * * * * * * * * //

dimensions      [0 3 -1 0 0 0 0];

oriented        oriented;

internalField   nonuniform List<scalar> 
3653
(
9.92425e-07
7.5754e-09
9.79236e-07
1.31884e-08
9.63591e-07
1.56454e-08
9.48303e-07
1.52881e-08
9.31263e-07
1.70393e-08
9.15184e-07
1.60797e-08
8.96805e-07
1.8379e-08
8.7952e-07
1.72843e-08
8.60548e-07
1.89724e-08
8.42575e-07
1.79731e-08
8.23287e-07
1.92879e-08
8.04249e-07
1.90386e-08
7.84667e-07
1.95819e-08
7.63959e-07
2.07072e-08
7.44309e-07
1.96501e-08
7.20599e-07
2.37099e-08
7.00501e-07
2.00987e-08
6.74508e-07
2.59924e-08
6.50622e-07
2.38862e-08
6.23532e-07
2.70903e-08
5.93338e-07
3.01942e-08
5.6234e-07
3.09976e-08
5.27894e-07
3.44465e-08
4.87672e-07
4.02219e-08
4.44854e-07
4.28179e-08
3.94664e-07
5.01897e-08
3.37913e-07
5.67511e-08
2.76799e-07
6.11138e-08
2.10276e-07
6.65229e-08
7.24386e-08
1.37838e-07
1.00254e-06
5.03196e-09
1.00656e-06
9.17075e-09
1.0083e-06
1.39067e-08
1.01074e-06
1.28443e-08
1.01012e-06
1.76605e-08
1.01251e-06
1.36966e-08
1.01036e-06
2.05224e-08
1.01174e-06
1.59092e-08
1.00902e-06
2.16934e-08
1.00763e-06
1.93584e-08
1.00515e-06
2.17717e-08
1.00208e-06
2.21104e-08
9.97302e-07
2.4355e-08
9.94831e-07
2.3178e-08
9.85919e-07
2.85628e-08
9.8371e-07
2.5918e-08
9.72771e-07
3.10381e-08
9.66841e-07
3.19227e-08
9.54297e-07
3.64302e-08
9.46068e-07
3.53185e-08
9.27672e-07
4.85903e-08
9.19113e-07
3.95573e-08
8.93105e-07
6.04538e-08
8.77664e-07
5.56632e-08
8.48853e-07
7.16293e-08
8.24069e-07
7.49736e-08
7.82595e-07
9.82253e-08
7.51799e-07
9.19095e-08
6.86826e-07
1.31496e-07
1.31137e-07
6.28128e-07
1.00092e-06
4.1079e-09
1.00484e-06
5.25666e-09
1.00718e-06
1.15687e-08
1.00992e-06
1.00988e-08
1.01161e-06
1.59673e-08
1.0137e-06
1.16101e-08
1.01519e-06
1.90361e-08
1.01693e-06
1.41669e-08
1.01838e-06
2.02408e-08
1.01892e-06
1.88233e-08
1.02023e-06
2.04618e-08
1.02002e-06
2.23211e-08
1.01987e-06
2.44977e-08
1.02103e-06
2.2018e-08
1.01723e-06
3.23664e-08
1.01985e-06
2.33014e-08
1.01382e-06
3.7067e-08
1.01455e-06
3.11913e-08
1.00932e-06
4.16648e-08
1.00654e-06
3.80937e-08
9.99233e-07
5.58976e-08
9.9625e-07
4.25397e-08
9.84789e-07
7.19153e-08
9.78471e-07
6.19806e-08
9.67381e-07
8.272e-08
9.53172e-07
8.91824e-08
9.38597e-07
1.128e-07
9.19404e-07
1.11103e-07
8.97054e-07
1.53845e-07
1.5747e-07
8.70721e-07
1.00056e-06
3.54905e-09
1.00265e-06
3.1624e-09
1.00439e-06
9.82875e-09
1.00665e-06
7.8459e-09
1.0083e-06
1.43108e-08
1.00996e-06
9.9502e-09
1.01152e-06
1.74823e-08
1.01322e-06
1.24659e-08
1.01421e-06
1.92492e-08
1.01648e-06
1.65568e-08
1.01597e-06
2.09697e-08
1.01894e-06
1.93498e-08
1.01736e-06
2.60721e-08
1.01991e-06
1.94688e-08
1.01847e-06
3.38071e-08
1.01936e-06
2.24159e-08
1.01812e-06
3.83083e-08
1.018e-06
3.13132e-08
1.01601e-06
4.36548e-08
1.01452e-06
3.95811e-08
1.01275e-06
5.76611e-08
1.00811e-06
4.71835e-08
1.0068e-06
7.323e-08
1.00131e-06
6.74691e-08
9.96326e-07
8.77015e-08
9.9228e-07
9.32279e-08
9.86377e-07
1.18703e-07
9.75551e-07
1.2193e-07
9.73402e-07
1.55994e-07
1.69469e-07
9.61403e-07
1.00079e-06
2.76166e-09
1.00135e-06
2.59855e-09
1.00343e-06
7.75259e-09
1.00465e-06
6.62616e-09
1.00673e-06
1.22233e-08
1.00799e-06
8.69353e-09
1.00965e-06
1.58245e-08
1.0112e-06
1.09127e-08
1.01235e-06
1.81018e-08
1.01428e-06
1.4631e-08
1.01467e-06
2.05724e-08
1.01676e-06
1.72617e-08
1.01655e-06
2.62874e-08
1.01844e-06
1.75721e-08
1.01801e-06
3.42403e-08
1.01905e-06
2.13756e-08
1.01854e-06
3.88145e-08
1.01874e-06
3.11135e-08
1.018e-06
4.43978e-08
1.01739e-06
4.01936e-08
1.01656e-06
5.84871e-08
1.01421e-06
4.95394e-08
1.01347e-06
7.3964e-08
1.01107e-06
6.98693e-08
1.00884e-06
8.99291e-08
1.00745e-06
9.46189e-08
1.00536e-06
1.20797e-07
1.00385e-06
1.23433e-07
1.00169e-06
1.58162e-07
1.66691e-07
1.00446e-06
1.00069e-06
2.07197e-09
1.00106e-06
2.22812e-09
1.00267e-06
6.14353e-09
1.00363e-06
5.66467e-09
1.00567e-06
1.01838e-08
1.00657e-06
7.7902e-09
1.0086e-06
1.38027e-08
1.0097e-06
9.80545e-09
1.01123e-06
1.65725e-08
1.0129e-06
1.29657e-08
1.01388e-06
1.95912e-08
1.01535e-06
1.57925e-08
1.01672e-06
2.49117e-08
1.01694e-06
1.73564e-08
1.01904e-06
3.21392e-08
1.01849e-06
2.19234e-08
1.01996e-06
3.73467e-08
1.01979e-06
3.12876e-08
1.02049e-06
4.36912e-08
1.0197e-06
4.09877e-08
1.02112e-06
5.70627e-08
1.01883e-06
5.18333e-08
1.02053e-06
7.22612e-08
1.01915e-06
7.1251e-08
1.01944e-06
8.96358e-08
1.01945e-06
9.46142e-08
1.02156e-06
1.18686e-07
1.02073e-06
1.24261e-07
1.02588e-06
1.53016e-07
1.63729e-07
1.02884e-06
1.00076e-06
1.30739e-09
1.00079e-06
2.20334e-09
1.00223e-06
4.70726e-09
1.00302e-06
4.87053e-09
1.00477e-06
8.4323e-09
1.0059e-06
6.6626e-09
1.00767e-06
1.20287e-08
1.00898e-06
8.49505e-09
1.0106e-06
1.49566e-08
1.01219e-06
1.1375e-08
1.01357e-06
1.8212e-08
1.01506e-06
1.43006e-08
1.01669e-06
2.32802e-08
1.01734e-06
1.6707e-08
1.01966e-06
2.9823e-08
1.01959e-06
2.19937e-08
1.02164e-06
3.52971e-08
1.02198e-06
3.09414e-08
1.0232e-06
4.24735e-08
1.02372e-06
4.04679e-08
1.0253e-06
5.54822e-08
1.02499e-06
5.21397e-08
1.02708e-06
7.01717e-08
1.02756e-06
7.07706e-08
1.02914e-06
8.80565e-08
1.03134e-06
9.24173e-08
1.03452e-06
1.15511e-07
1.03817e-06
1.20607e-07
1.0439e-06
1.47289e-07
1.56503e-07
1.05112e-06
1.00057e-06
7.37731e-10
1.0007e-06
2.07667e-09
1.00194e-06
3.46277e-09
1.00264e-06
4.16659e-09
1.00446e-06
6.62045e-09
1.00536e-06
5.75738e-09
1.00747e-06
9.92242e-09
1.00852e-06
7.44728e-09
1.0106e-06
1.28774e-08
1.01189e-06
1.00764e-08
1.01395e-06
1.61545e-08
1.01503e-06
1.3219e-08
1.0176e-06
2.0715e-08
1.01796e-06
1.63463e-08
1.02104e-06
2.67399e-08
1.02124e-06
2.17933e-08
1.02392e-06
3.26244e-08
1.02463e-06
3.02228e-08
1.02694e-06
4.01707e-08
1.02773e-06
3.96743e-08
1.03067e-06
5.25384e-08
1.03117e-06
5.16467e-08
1.03454e-06
6.68009e-08
1.03617e-06
6.91382e-08
1.03975e-06
8.44786e-08
1.04261e-06
8.9551e-08
1.04862e-06
1.09503e-07
1.05303e-06
1.16197e-07
1.06156e-06
1.38758e-07
1.48769e-07
1.0693e-06
1.00047e-06
2.70065e-10
1.00072e-06
1.82804e-09
1.00172e-06
2.45419e-09
1.00263e-06
3.26583e-09
1.00416e-06
5.08948e-09
1.00534e-06
4.57236e-09
1.0073e-06
7.96005e-09
1.00854e-06
6.21538e-09
1.01077e-06
1.06443e-08
1.0121e-06
8.74956e-09
1.01447e-06
1.37757e-08
1.01573e-06
1.19644e-08
1.01848e-06
1.79652e-08
1.01938e-06
1.54457e-08
1.02256e-06
2.35586e-08
1.02345e-06
2.09089e-08
1.02643e-06
2.96393e-08
1.02788e-06
2.87684e-08
1.03064e-06
3.74155e-08
1.03236e-06
3.79529e-08
1.03591e-06
4.8991e-08
1.03763e-06
4.99276e-08
1.04173e-06
6.27021e-08
1.04475e-06
6.61161e-08
1.04935e-06
7.98723e-08
1.05387e-06
8.50356e-08
1.06076e-06
1.0261e-07
1.06734e-06
1.09618e-07
1.07696e-06
1.29143e-07
1.38786e-07
1.08694e-06
1.00036e-06
-9.20372e-11
1.00069e-06
1.49774e-09
1.00168e-06
1.46627e-09
1.00257e-06
2.37354e-09
1.00419e-06
3.47015e-09
1.00537e-06
3.39291e-09
1.00749e-06
5.84302e-09
1.00879e-06
4.91152e-09
1.01121e-06
8.22816e-09
1.01265e-06
7.31136e-09
1.01531e-06
1.11158e-08
1.01672e-06
1.05512e-08
1.01977e-06
1.49119e-08
1.02106e-06
1.41562e-08
1.02445e-06
2.01723e-08
1.02595e-06
1.94076e-08
1.0293e-06
2.62848e-08
1.03128e-06
2.67941e-08
1.03475e-06
3.39408e-08
1.03708e-06
3.56267e-08
1.04137e-06
4.46979e-08
1.04407e-06
4.72344e-08
1.049e-06
5.77669e-08
1.05298e-06
6.21361e-08
1.0589e-06
7.39533e-08
1.0643e-06
7.96405e-08
1.07259e-06
9.43127e-08
1.0802e-06
1.02014e-07
1.09109e-06
1.18251e-07
1.28056e-07
1.10182e-06
1.00026e-06
-3.48585e-10
1.00076e-06
9.96797e-10
1.00165e-06
5.71688e-10
1.00275e-06
1.27737e-09
1.00431e-06
1.91024e-09
1.0057e-06
1.99801e-09
1.00784e-06
3.71082e-09
1.00935e-06
3.40051e-09
1.01186e-06
5.71199e-09
1.01354e-06
5.63133e-09
1.01631e-06
8.34983e-09
1.01815e-06
8.71402e-09
1.0212e-06
1.18551e-08
1.02313e-06
1.22251e-08
1.02654e-06
1.67629e-08
1.02873e-06
1.72213e-08
1.03232e-06
2.26941e-08
1.03496e-06
2.4154e-08
1.03886e-06
3.00419e-08
1.04197e-06
3.25156e-08
1.04672e-06
3.99512e-08
1.05045e-06
4.35001e-08
1.05594e-06
5.22742e-08
1.06099e-06
5.70883e-08
1.06769e-06
6.72515e-08
1.07423e-06
7.31068e-08
1.08313e-06
8.54065e-08
1.09199e-06
9.31594e-08
1.10351e-06
1.06732e-07
1.16088e-07
1.11548e-06
1.00022e-06
-5.68984e-10
1.0008e-06
4.1424e-10
1.00177e-06
-3.97466e-10
1.00295e-06
1.01103e-10
1.00463e-06
2.28805e-10
1.00616e-06
4.63963e-10
1.00838e-06
1.49154e-09
1.01013e-06
1.65509e-09
1.01271e-06
3.13344e-09
1.01468e-06
3.65616e-09
1.01756e-06
5.47427e-09
1.01977e-06
6.50377e-09
1.02293e-06
8.6897e-09
1.02537e-06
9.78874e-09
1.0289e-06
1.32341e-08
1.03167e-06
1.44481e-08
1.03554e-06
1.88273e-08
1.03873e-06
2.09579e-08
1.04309e-06
2.56845e-08
1.04687e-06
2.87334e-08
1.05207e-06
3.47597e-08
1.05667e-06
3.88958e-08
1.06274e-06
4.62052e-08
1.06861e-06
5.12149e-08
1.07606e-06
5.98078e-08
1.08339e-06
6.57753e-08
1.09296e-06
7.58377e-08
1.10266e-06
8.34598e-08
1.11472e-06
9.46723e-08
1.03606e-07
1.1272e-06
1.0002e-06
-7.71836e-10
1.00094e-06
-3.19745e-10
1.002e-06
-1.45611e-09
1.00338e-06
-1.28597e-09
1.00516e-06
-1.54752e-09
1.00692e-06
-1.29754e-09
1.00921e-06
-8.00865e-10
1.0112e-06
-3.31022e-10
1.01383e-06
5.01239e-10
1.01614e-06
1.34993e-09
1.01907e-06
2.54615e-09
1.02171e-06
3.85896e-09
1.02492e-06
5.48152e-09
1.02784e-06
6.86389e-09
1.03151e-06
9.566e-09
1.03479e-06
1.11687e-08
1.03891e-06
1.47036e-08
1.04268e-06
1.7193e-08
1.04736e-06
2.10046e-08
1.05182e-06
2.42698e-08
1.05734e-06
2.92414e-08
1.06273e-06
3.35051e-08
1.06926e-06
3.96763e-08
1.0759e-06
4.45787e-08
1.08385e-06
5.18551e-08
1.09196e-06
5.76664e-08
1.10189e-06
6.59108e-08
1.11229e-06
7.30589e-08
1.12461e-06
8.23522e-08
9.04173e-08
1.13779e-06
1.00021e-06
-9.78349e-10
1.00107e-06
-1.17916e-09
1.00227e-06
-2.66502e-09
1.00387e-06
-2.88069e-09
1.0058e-06
-3.48288e-09
1.00779e-06
-3.28408e-09
1.01018e-06
-3.18976e-09
1.01245e-06
-2.60318e-09
1.01518e-06
-2.22715e-09
1.0178e-06
-1.26648e-09
1.02086e-06
-5.21089e-10
1.02386e-06
8.64706e-10
1.02723e-06
2.10716e-09
1.03054e-06
3.56193e-09
1.03441e-06
5.68857e-09
1.03812e-06
7.46199e-09
1.04251e-06
1.03089e-08
1.04676e-06
1.29439e-08
1.05178e-06
1.59845e-08
1.05682e-06
1.92335e-08
1.06267e-06
2.33889e-08
1.06869e-06
2.74868e-08
1.07566e-06
3.27068e-08
1.08286e-06
3.7376e-08
1.09125e-06
4.34709e-08
1.09996e-06
4.89547e-08
1.11021e-06
5.5654e-08
1.12118e-06
6.20965e-08
1.13375e-06
6.97783e-08
7.72408e-08
1.14693e-06
1.00033e-06
-1.30828e-09
1.00142e-06
-2.27016e-09
1.00294e-06
-4.17946e-09
1.00482e-06
-4.76752e-09
1.00697e-06
-5.62817e-09
1.0092e-06
-5.51255e-09
1.01169e-06
-5.68833e-09
1.01421e-06
-5.11977e-09
1.01705e-06
-5.06193e-09
1.01995e-06
-4.16737e-09
1.02312e-06
-3.68962e-09
1.02641e-06
-2.42672e-09
1.02993e-06
-1.41667e-09
1.03351e-06
-1.93709e-11
1.0376e-06
1.60481e-09
1.04168e-06
3.38246e-09
1.0463e-06
5.6792e-09
1.05101e-06
8.23437e-09
1.0563e-06
1.06995e-08
1.06182e-06
1.37168e-08
1.06797e-06
1.72395e-08
1.07451e-06
2.09433e-08
1.08187e-06
2.53503e-08
1.08958e-06
2.96653e-08
1.09828e-06
3.47634e-08
1.10749e-06
3.97452e-08
1.11794e-06
4.5209e-08
1.12916e-06
5.08792e-08
1.14174e-06
5.7194e-08
6.34343e-08
1.15555e-06
1.00039e-06
-1.69843e-09
1.00185e-06
-3.72623e-09
1.00377e-06
-6.10778e-09
1.00603e-06
-7.02536e-09
1.00841e-06
-8.0096e-09
1.01089e-06
-7.98486e-09
1.01351e-06
-8.31548e-09
1.01629e-06
-7.89684e-09
1.01931e-06
-8.07916e-09
1.02248e-06
-7.3379e-09
1.02584e-06
-7.04695e-09
1.02938e-06
-5.97581e-09
1.03311e-06
-5.14358e-09
1.03705e-06
-3.9625e-09
1.04135e-06
-2.69217e-09
1.04574e-06
-1.00789e-09
1.0506e-06
8.16759e-10
1.05571e-06
3.12962e-09
1.0613e-06
5.11055e-09
1.06722e-06
7.79636e-09
1.07365e-06
1.08042e-08
1.08058e-06
1.40184e-08
1.08824e-06
1.76891e-08
1.09632e-06
2.15878e-08
1.10532e-06
2.57632e-08
1.11495e-06
3.01085e-08
1.12566e-06
3.4505e-08
1.13717e-06
3.93675e-08
1.14975e-06
4.46137e-08
5.0174e-08
1.16301e-06
1.00083e-06
-2.5313e-09
1.00288e-06
-5.7702e-09
1.00529e-06
-8.51734e-09
1.00788e-06
-9.62012e-09
1.01046e-06
-1.05857e-08
1.01314e-06
-1.06665e-08
1.01594e-06
-1.11202e-08
1.01902e-06
-1.09758e-08
1.02226e-06
-1.13174e-08
1.02564e-06
-1.07213e-08
1.02916e-06
-1.05677e-08
1.03294e-06
-9.74713e-09
1.03684e-06
-9.05016e-09
1.04099e-06
-8.10478e-09
1.04544e-06
-7.15046e-09
1.05006e-06
-5.62692e-09
1.05508e-06
-4.20429e-09
1.06052e-06
-2.30336e-09
1.06631e-06
-6.82859e-10
1.0725e-06
1.60624e-09
1.07918e-06
4.12474e-09
1.08643e-06
6.76517e-09
1.09435e-06
9.77332e-09
1.10275e-06
1.31864e-08
1.11196e-06
1.65548e-08
1.12186e-06
2.02108e-08
1.13261e-06
2.37506e-08
1.1442e-06
2.77807e-08
1.15693e-06
3.18782e-08
3.62731e-08
1.17083e-06
1.00176e-06
-4.29358e-09
1.00524e-06
-9.25119e-09
1.00848e-06
-1.17502e-08
1.01147e-06
-1.26183e-08
1.01424e-06
-1.33532e-08
1.01722e-06
-1.36464e-08
1.02026e-06
-1.41567e-08
1.02358e-06
-1.42971e-08
1.02686e-06
-1.45968e-08
1.03021e-06
-1.40729e-08
1.03359e-06
-1.39432e-08
1.0372e-06
-1.33657e-08
1.04096e-06
-1.28041e-08
1.04497e-06
-1.212e-08
1.04919e-06
-1.13636e-08
1.05362e-06
-1.00552e-08
1.05842e-06
-9.01372e-09
1.06374e-06
-7.62256e-09
1.06943e-06
-6.36531e-09
1.07544e-06
-4.40911e-09
1.08195e-06
-2.38179e-09
1.08905e-06
-3.39275e-10
1.09686e-06
1.97094e-09
1.10528e-06
4.76073e-09
1.11459e-06
7.24534e-09
1.12468e-06
1.01233e-08
1.13556e-06
1.28717e-08
1.14717e-06
1.61689e-08
1.1597e-06
1.93431e-08
2.28797e-08
1.1731e-06
1.00297e-06
-7.26056e-09
1.00685e-06
-1.31326e-08
1.00971e-06
-1.46082e-08
1.0119e-06
-1.48084e-08
1.01372e-06
-1.51724e-08
1.01549e-06
-1.54198e-08
1.01704e-06
-1.57054e-08
1.01851e-06
-1.57725e-08
1.01952e-06
-1.56031e-08
1.0205e-06
-1.50524e-08
1.0214e-06
-1.48482e-08
1.02239e-06
-1.43529e-08
1.02334e-06
-1.37545e-08
1.02438e-06
-1.31611e-08
1.02561e-06
-1.25913e-08
1.02728e-06
-1.1728e-08
1.02924e-06
-1.09753e-08
1.03155e-06
-9.92456e-09
1.03405e-06
-8.86926e-09
1.03724e-06
-7.59686e-09
1.04136e-06
-6.50032e-09
1.04622e-06
-5.20005e-09
1.05182e-06
-3.63454e-09
1.05825e-06
-1.66951e-09
1.06549e-06
6.63197e-12
1.07392e-06
1.69099e-09
1.08361e-06
3.18842e-09
1.09484e-06
4.93167e-09
1.10753e-06
6.66265e-09
8.59377e-09
1.12181e-06
9.92739e-07
9.79607e-07
9.64999e-07
9.5019e-07
9.35018e-07
9.19598e-07
9.03893e-07
8.8812e-07
8.72517e-07
8.57465e-07
8.42616e-07
8.28264e-07
8.14509e-07
8.01348e-07
7.88757e-07
7.77029e-07
7.66053e-07
7.56129e-07
7.4726e-07
7.39663e-07
7.33162e-07
7.27962e-07
7.24328e-07
7.22658e-07
7.22665e-07
7.24356e-07
7.27544e-07
7.32476e-07
7.39139e-07
7.47732e-07
2.54848e-07
-1.17011e-07
3.49833e-07
-9.49847e-08
4.35825e-07
-8.59924e-08
4.98194e-07
-6.23685e-08
5.59924e-07
-6.17298e-08
6.10117e-07
-5.01936e-08
6.56103e-07
-4.5986e-08
7.13088e-07
-5.69847e-08
7.66156e-07
-5.30682e-08
-1.14316e-07
8.80472e-07
6.9136e-07
-1.80242e-07
7.45125e-07
-1.4875e-07
7.78674e-07
-1.19541e-07
8.17954e-07
-1.01649e-07
8.6098e-07
-1.04756e-07
8.92127e-07
-8.13403e-08
9.18568e-07
-7.2427e-08
9.49346e-07
-8.77626e-08
1.01164e-06
-1.15358e-07
-1.32365e-07
1.02969e-06
8.74757e-07
-1.84278e-07
8.9716e-07
-1.71153e-07
9.04935e-07
-1.27316e-07
9.22803e-07
-1.19517e-07
9.28714e-07
-1.10667e-07
9.62468e-07
-1.15094e-07
9.61727e-07
-7.16867e-08
9.89709e-07
-1.15745e-07
1.02156e-06
-1.47212e-07
-1.75029e-07
1.06423e-06
9.54005e-07
-1.7688e-07
9.54309e-07
-1.71457e-07
9.62681e-07
-1.35688e-07
9.7044e-07
-1.27276e-07
9.75884e-07
-1.1611e-07
9.90504e-07
-1.29714e-07
1.01263e-06
-9.38148e-08
1.01732e-06
-1.20432e-07
1.0298e-06
-1.59696e-07
-1.9878e-07
1.05355e-06
9.96172e-07
-1.68588e-07
9.91815e-07
-1.671e-07
9.89332e-07
-1.33206e-07
9.9814e-07
-1.36084e-07
9.98029e-07
-1.15999e-07
1.00499e-06
-1.36671e-07
1.02154e-06
-1.10368e-07
1.03477e-06
-1.33665e-07
1.03823e-06
-1.63159e-07
-2.10184e-07
1.04964e-06
1.0213e-06
-1.61044e-07
1.01445e-06
-1.60258e-07
1.01646e-06
-1.35212e-07
1.01757e-06
-1.37189e-07
1.02049e-06
-1.18926e-07
1.02199e-06
-1.38164e-07
1.03403e-06
-1.22415e-07
1.04115e-06
-1.40782e-07
1.04224e-06
-1.64249e-07
-2.12964e-07
1.04502e-06
1.04342e-06
-1.5334e-07
1.03725e-06
-1.54092e-07
1.03359e-06
-1.3155e-07
1.03337e-06
-1.36971e-07
1.03574e-06
-1.21289e-07
1.03542e-06
-1.37848e-07
1.04103e-06
-1.2802e-07
1.04694e-06
-1.46698e-07
1.04518e-06
-1.62486e-07
-2.09226e-07
1.04144e-06
1.06237e-06
-1.46412e-07
1.05439e-06
-1.46113e-07
1.0518e-06
-1.28959e-07
1.04855e-06
-1.33723e-07
1.04897e-06
-1.21709e-07
1.0463e-06
-1.35178e-07
1.04789e-06
-1.29611e-07
1.04939e-06
-1.48194e-07
1.0473e-06
-1.60397e-07
-1.99818e-07
1.03789e-06
1.07875e-06
-1.38219e-07
1.07083e-06
-1.38199e-07
1.06585e-06
-1.23971e-07
1.06099e-06
-1.28868e-07
1.05894e-06
-1.19658e-07
1.05503e-06
-1.31271e-07
1.05313e-06
-1.27711e-07
1.05142e-06
-1.46477e-07
1.04628e-06
-1.55264e-07
-1.88517e-07
1.03498e-06
1.09327e-06
-1.29667e-07
1.0842e-06
-1.29133e-07
1.0783e-06
-1.18072e-07
1.07183e-06
-1.224e-07
1.06744e-06
-1.15268e-07
1.06187e-06
-1.25695e-07
1.0579e-06
-1.23744e-07
1.05191e-06
-1.40488e-07
1.045e-06
-1.48356e-07
-1.76743e-07
1.03323e-06
1.10587e-06
-1.20065e-07
1.09626e-06
-1.19519e-07
1.08873e-06
-1.10546e-07
1.08081e-06
-1.1448e-07
1.07469e-06
-1.0914e-07
1.06715e-06
-1.18157e-07
1.06058e-06
-1.1718e-07
1.05266e-06
-1.32568e-07
1.04409e-06
-1.39782e-07
-1.63202e-07
1.03055e-06
1.11686e-06
-1.09724e-07
1.10634e-06
-1.09e-07
1.09762e-06
-1.0183e-07
1.08828e-06
-1.05141e-07
1.08036e-06
-1.01219e-07
1.07124e-06
-1.09038e-07
1.0631e-06
-1.09036e-07
1.05271e-06
-1.22181e-07
1.0419e-06
-1.2897e-07
-1.48987e-07
1.02769e-06
1.12659e-06
-9.85191e-08
1.11533e-06
-9.77386e-08
1.10542e-06
-9.19182e-08
1.0949e-06
-9.46242e-08
1.0854e-06
-9.17188e-08
1.07461e-06
-9.82526e-08
1.0646e-06
-9.90198e-08
1.05285e-06
-1.10433e-07
1.0405e-06
-1.1662e-07
-1.33435e-07
1.02495e-06
1.13504e-06
-8.66329e-08
1.12298e-06
-8.56762e-08
1.11196e-06
-8.09022e-08
1.10028e-06
-8.29442e-08
1.08946e-06
-8.08944e-08
1.07752e-06
-8.63135e-08
1.06597e-06
-8.74714e-08
1.05263e-06
-9.70884e-08
1.03882e-06
-1.02817e-07
-1.17037e-07
1.02243e-06
1.14293e-06
-7.40136e-08
1.13018e-06
-7.29318e-08
1.11825e-06
-6.89651e-08
1.10561e-06
-7.03043e-08
1.09348e-06
-6.87678e-08
1.08025e-06
-7.30832e-08
1.06728e-06
-7.45065e-08
1.05275e-06
-8.2555e-08
1.03762e-06
-8.76816e-08
-9.94748e-08
1.02005e-06
1.14985e-06
-6.0849e-08
1.13639e-06
-5.94713e-08
1.12358e-06
-5.61552e-08
1.11006e-06
-5.67913e-08
1.09695e-06
-5.56538e-08
1.08278e-06
-5.89191e-08
1.06867e-06
-6.03908e-08
1.05299e-06
-6.68802e-08
1.03677e-06
-7.14539e-08
-8.10608e-08
1.01835e-06
1.15687e-06
-4.68875e-08
1.14268e-06
-4.52755e-08
1.129e-06
-4.2477e-08
1.1145e-06
-4.2292e-08
1.1002e-06
-4.13552e-08
1.08477e-06
-4.34918e-08
1.06931e-06
-4.49276e-08
1.05233e-06
-4.9904e-08
1.03483e-06
-5.39526e-08
-6.14425e-08
1.01521e-06
1.15763e-06
-3.14203e-08
1.14194e-06
-2.95898e-08
1.12683e-06
-2.73604e-08
1.11103e-06
-2.64954e-08
1.09548e-06
-2.58037e-08
1.07884e-06
-2.68491e-08
1.06209e-06
-2.81761e-08
1.04375e-06
-3.15659e-08
1.02478e-06
-3.49885e-08
-4.02863e-08
1.00363e-06
1.10353e-06
-1.31379e-08
1.08571e-06
-1.17756e-08
1.06869e-06
-1.03313e-08
1.0516e-06
-9.41164e-09
1.0349e-06
-9.10201e-09
1.01765e-06
-9.59424e-09
1.00018e-06
-1.0707e-08
9.81239e-07
-1.26287e-08
9.61204e-07
-1.49533e-08
-1.77863e-08
9.38704e-07
7.34595e-07
7.22819e-07
7.12488e-07
7.03076e-07
6.93974e-07
6.8438e-07
6.73673e-07
6.61044e-07
6.46091e-07
6.28304e-07
1.08239e-07
-1.08239e-07
1.09113e-07
-8.74499e-10
8.81341e-08
2.09791e-08
2.44764e-08
6.36577e-08
-2.08665e-07
2.33142e-07
-4.88468e-07
2.79802e-07
-7.17409e-07
2.28942e-07
-8.83767e-07
1.66358e-07
-9.67679e-07
8.39111e-08
-9.82989e-07
1.53108e-08
-9.40842e-07
-4.21474e-08
-8.63167e-07
-7.76746e-08
-7.60843e-07
-1.02325e-07
-6.44718e-07
-1.16125e-07
-5.1535e-07
-1.29368e-07
-3.75501e-07
-1.39849e-07
-2.32342e-07
-1.43159e-07
-8.49901e-08
-1.47352e-07
4.9405e-08
-1.34395e-07
1.66174e-07
-1.16769e-07
2.59217e-07
-9.30424e-08
3.29256e-07
-7.00392e-08
3.79695e-07
-5.04387e-08
4.14972e-07
-3.52775e-08
4.38565e-07
-2.35924e-08
4.52762e-07
-1.4197e-08
4.58509e-07
-5.74724e-09
4.564e-07
2.10872e-09
4.46954e-07
9.4459e-09
4.31454e-07
1.55e-08
4.11883e-07
1.95717e-08
3.90891e-07
2.09919e-08
3.70552e-07
2.03391e-08
3.52716e-07
1.78361e-08
3.37844e-07
1.48715e-08
3.2637e-07
1.14739e-08
3.17479e-07
8.89086e-09
3.11148e-07
6.33125e-09
3.0611e-07
5.03769e-09
3.51904e-09
8.65583e-08
-1.94797e-07
1.30396e-07
-4.47117e-08
3.37749e-08
1.176e-07
-2.1789e-07
3.15323e-07
-4.73523e-07
4.88774e-07
-6.67155e-07
4.73435e-07
-8.15859e-07
3.77645e-07
-9.17021e-07
2.6752e-07
-9.56159e-07
1.23049e-07
-9.39302e-07
-1.54612e-09
-8.75279e-07
-1.0617e-07
-7.83085e-07
-1.69868e-07
-6.69263e-07
-2.16147e-07
-5.50402e-07
-2.34985e-07
-4.22934e-07
-2.56836e-07
-2.85306e-07
-2.77477e-07
-1.40692e-07
-2.87773e-07
5.74619e-09
-2.9379e-07
1.43535e-07
-2.72184e-07
2.64975e-07
-2.3821e-07
3.6544e-07
-1.93508e-07
4.44368e-07
-1.48967e-07
5.04736e-07
-1.10807e-07
5.51278e-07
-8.18193e-08
5.87811e-07
-6.01255e-08
6.17001e-07
-4.33869e-08
6.40341e-07
-2.90869e-08
6.59079e-07
-1.66297e-08
6.73123e-07
-4.59784e-09
6.82083e-07
6.54002e-09
6.85316e-07
1.63386e-08
6.8355e-07
2.27579e-08
6.77907e-07
2.59822e-08
6.70591e-07
2.51518e-08
6.62935e-07
2.25274e-08
6.56249e-07
1.81603e-08
6.50689e-07
1.4451e-08
6.46458e-07
1.05625e-08
6.43041e-07
8.45434e-09
6.12836e-09
-1.42506e-08
-1.80546e-07
-9.91958e-08
4.02334e-08
-1.93873e-07
2.12277e-07
-3.43984e-07
4.65434e-07
-4.70575e-07
6.15365e-07
-5.72344e-07
5.75205e-07
-6.58424e-07
4.63725e-07
-7.12784e-07
3.2188e-07
-7.25839e-07
1.36104e-07
-6.94218e-07
-3.31678e-08
-6.22872e-07
-1.77516e-07
-5.31899e-07
-2.60841e-07
-4.30472e-07
-3.17575e-07
-3.22519e-07
-3.42938e-07
-2.16309e-07
-3.63046e-07
-1.02896e-07
-3.9089e-07
1.84022e-08
-4.09071e-07
1.38607e-07
-4.13995e-07
2.5373e-07
-3.87306e-07
3.53511e-07
-3.3799e-07
4.3704e-07
-2.77037e-07
5.03363e-07
-2.1529e-07
5.5335e-07
-1.60794e-07
5.91567e-07
-1.20036e-07
6.2261e-07
-9.11683e-08
6.48655e-07
-6.94314e-08
6.70156e-07
-5.05883e-08
6.88687e-07
-3.51613e-08
7.0589e-07
-2.18008e-08
7.22645e-07
-1.02145e-08
7.37449e-07
1.53485e-09
7.48568e-07
1.1639e-08
7.5486e-07
1.96897e-08
7.5669e-07
2.33216e-08
7.55556e-07
2.36619e-08
7.52844e-07
2.08724e-08
7.50122e-07
1.71729e-08
7.47847e-07
1.28368e-08
7.46394e-07
9.90815e-09
6.60221e-09
-1.43307e-08
-1.66216e-07
-9.56912e-08
1.21594e-07
-1.62604e-07
2.79189e-07
-2.74187e-07
5.77017e-07
-3.52858e-07
6.94036e-07
-4.00749e-07
6.23096e-07
-4.3904e-07
5.02016e-07
-4.61468e-07
3.44308e-07
-4.59433e-07
1.34069e-07
-4.24779e-07
-6.78212e-08
-3.61097e-07
-2.41198e-07
-2.76678e-07
-3.4526e-07
-1.86932e-07
-4.07321e-07
-9.49256e-08
-4.34944e-07
1.77846e-09
-4.5975e-07
9.98486e-08
-4.8896e-07
1.97353e-07
-5.06576e-07
2.93266e-07
-5.09908e-07
3.84415e-07
-4.78455e-07
4.58568e-07
-4.12144e-07
5.16178e-07
-3.34647e-07
5.63264e-07
-2.62376e-07
5.99983e-07
-1.97514e-07
6.26779e-07
-1.46832e-07
6.48728e-07
-1.13117e-07
6.69578e-07
-9.02823e-08
6.88124e-07
-6.9134e-08
7.02157e-07
-4.91938e-08
7.12565e-07
-3.22089e-08
7.22662e-07
-2.03117e-08
7.34617e-07
-1.04202e-08
7.47985e-07
-1.72897e-09
7.60504e-07
7.17064e-09
7.7e-07
1.38258e-08
7.75679e-07
1.79826e-08
7.77696e-07
1.88558e-08
7.7725e-07
1.76188e-08
7.75769e-07
1.4317e-08
7.73785e-07
1.18924e-08
7.58699e-09
-1.61283e-09
-1.64603e-07
-1.30552e-07
2.50533e-07
-1.53261e-07
3.01898e-07
-1.48515e-07
5.72272e-07
-1.40624e-07
6.86145e-07
-1.44987e-07
6.27459e-07
-1.59428e-07
5.16456e-07
-1.61108e-07
3.45988e-07
-1.46261e-07
1.19223e-07
-1.13703e-07
-1.00379e-07
-6.75545e-08
-2.87347e-07
-7.29073e-09
-4.05524e-07
5.72524e-08
-4.71864e-07
1.31086e-07
-5.08779e-07
2.11871e-07
-5.40534e-07
2.9487e-07
-5.71959e-07
3.74317e-07
-5.86023e-07
4.40133e-07
-5.75724e-07
5.00508e-07
-5.38829e-07
5.52721e-07
-4.64358e-07
5.86382e-07
-3.68308e-07
6.09024e-07
-2.85017e-07
6.30335e-07
-2.18825e-07
6.47874e-07
-1.64371e-07
6.60188e-07
-1.2543e-07
6.72594e-07
-1.02688e-07
6.88323e-07
-8.48634e-08
7.03764e-07
-6.46346e-08
7.13827e-07
-4.22721e-08
7.18289e-07
-2.47739e-08
7.21087e-07
-1.32185e-08
7.26172e-07
-6.8133e-09
7.3487e-07
-1.52791e-09
7.45782e-07
2.91414e-09
7.56735e-07
7.03012e-09
7.65831e-07
9.75895e-09
7.72198e-07
1.12522e-08
7.76014e-07
1.05008e-08
7.77791e-07
1.01155e-08
6.98203e-09
-8.69539e-08
-7.76489e-08
-8.84906e-08
2.52069e-07
-4.66698e-09
2.18075e-07
1.69536e-08
5.50651e-07
4.519e-08
6.57908e-07
7.58979e-08
5.96751e-07
1.08382e-07
4.83973e-07
1.48601e-07
3.05769e-07
1.83332e-07
8.44915e-08
2.18257e-07
-1.35304e-07
2.49827e-07
-3.18917e-07
2.83998e-07
-4.39695e-07
3.24442e-07
-5.12309e-07
3.77338e-07
-5.61675e-07
4.40455e-07
-6.03651e-07
5.04937e-07
-6.3644e-07
5.63321e-07
-6.44407e-07
5.99242e-07
-6.11645e-07
6.12231e-07
-5.51818e-07
6.26225e-07
-4.78352e-07
6.40448e-07
-3.82531e-07
6.4472e-07
-2.8929e-07
6.48751e-07
-2.22856e-07
6.59088e-07
-1.74708e-07
6.69196e-07
-1.35539e-07
6.75607e-07
-1.09099e-07
6.83214e-07
-9.2471e-08
6.95384e-07
-7.68039e-08
7.08146e-07
-5.5034e-08
7.15567e-07
-3.21957e-08
7.1624e-07
-1.38911e-08
7.13956e-07
-4.52937e-09
7.13558e-07
-1.13025e-09
7.17658e-07
-1.18536e-09
7.26112e-07
-1.42353e-09
7.37013e-07
-1.14262e-09
7.48552e-07
-2.86638e-10
7.5831e-07
7.42343e-10
7.66875e-07
1.55088e-09
2.17227e-09
-2.30646e-07
1.52998e-07
-7.42165e-08
9.56392e-08
4.8301e-08
9.55571e-08
2.47756e-07
3.51196e-07
3.50971e-07
5.54693e-07
4.1191e-07
5.35813e-07
4.56935e-07
4.38947e-07
4.98287e-07
2.64416e-07
5.25534e-07
5.7245e-08
5.39306e-07
-1.49077e-07
5.39938e-07
-3.19548e-07
5.44547e-07
-4.44304e-07
5.61952e-07
-5.29714e-07
5.95032e-07
-5.94754e-07
6.41029e-07
-6.49649e-07
6.833e-07
-6.78711e-07
7.11137e-07
-6.72244e-07
7.24122e-07
-6.2463e-07
7.1127e-07
-5.38966e-07
6.85485e-07
-4.52566e-07
6.73201e-07
-3.70247e-07
6.70068e-07
-2.86157e-07
6.66774e-07
-2.19562e-07
6.68514e-07
-1.76448e-07
6.76606e-07
-1.43631e-07
6.84054e-07
-1.16547e-07
6.87901e-07
-9.63179e-08
6.92474e-07
-8.1377e-08
7.00996e-07
-6.35566e-08
7.11033e-07
-4.22325e-08
7.17578e-07
-2.04357e-08
7.18705e-07
-5.65674e-09
7.16446e-07
1.12879e-09
7.14441e-07
8.19365e-10
7.1585e-07
-2.83208e-09
7.20583e-07
-5.8764e-09
7.29496e-07
-9.19937e-09
7.38774e-07
-8.53576e-09
7.50184e-07
-9.85836e-09
-6.3438e-09
6.53008e-07
3.80461e-07
4.44052e-07
3.04596e-07
2.89358e-07
2.5025e-07
3.48551e-07
2.92004e-07
5.07485e-07
3.9576e-07
6.40103e-07
4.03194e-07
7.35707e-07
3.43343e-07
7.96418e-07
2.03706e-07
8.24282e-07
2.93808e-08
8.2002e-07
-1.44814e-07
8.03555e-07
-3.03084e-07
7.97597e-07
-4.38346e-07
8.12729e-07
-5.44846e-07
8.37235e-07
-6.1926e-07
8.55676e-07
-6.6809e-07
8.62199e-07
-6.85234e-07
8.4745e-07
-6.57495e-07
8.15417e-07
-5.92597e-07
7.81223e-07
-5.04772e-07
7.44221e-07
-4.15564e-07
7.16497e-07
-3.42523e-07
7.1033e-07
-2.7999e-07
7.16555e-07
-2.25786e-07
7.24555e-07
-1.84448e-07
7.32416e-07
-1.51492e-07
7.39027e-07
-1.23158e-07
7.42122e-07
-9.94129e-08
7.4258e-07
-8.18343e-08
7.44201e-07
-6.51775e-08
7.4971e-07
-4.77417e-08
7.58171e-07
-2.88972e-08
7.66715e-07
-1.42005e-08
7.73178e-07
-5.33406e-09
7.76378e-07
-2.38072e-09
7.77812e-07
-4.26641e-09
7.77479e-07
-5.54351e-09
7.78887e-07
-1.06066e-08
7.80664e-07
-1.03131e-08
7.85449e-07
-1.46437e-08
-1.22697e-08
1.00959e-06
4.00561e-07
9.44791e-07
3.6939e-07
8.36339e-07
3.58703e-07
7.62585e-07
3.65758e-07
7.73778e-07
3.84567e-07
8.36573e-07
3.40399e-07
9.11177e-07
2.68739e-07
9.68446e-07
1.46436e-07
1.00018e-06
-2.35027e-09
1.01139e-06
-1.56024e-07
1.0088e-06
-3.00494e-07
1.01198e-06
-4.41529e-07
1.02385e-06
-5.56713e-07
1.02832e-06
-6.23728e-07
1.01152e-06
-6.51291e-07
9.69649e-07
-6.43365e-07
9.13546e-07
-6.01393e-07
8.52044e-07
-5.31095e-07
7.97366e-07
-4.50094e-07
7.587e-07
-3.76898e-07
7.34175e-07
-3.17998e-07
7.2389e-07
-2.69704e-07
7.28298e-07
-2.30195e-07
7.42479e-07
-1.98629e-07
7.58081e-07
-1.67094e-07
7.67927e-07
-1.33003e-07
7.70231e-07
-1.01717e-07
7.68758e-07
-8.03621e-08
7.6801e-07
-6.44291e-08
7.69965e-07
-4.96971e-08
7.74193e-07
-3.31247e-08
7.79893e-07
-1.99009e-08
7.87143e-07
-1.25844e-08
7.95067e-07
-1.03044e-08
8.03082e-07
-1.22818e-08
8.08624e-07
-1.10853e-08
8.11206e-07
-1.31883e-08
8.11231e-07
-1.03379e-08
8.08856e-07
-1.22685e-08
-1.13651e-08
1.08374e-06
3.81044e-07
1.08562e-06
3.67514e-07
1.08818e-06
3.56148e-07
1.0934e-06
3.60537e-07
1.11049e-06
3.67473e-07
1.13933e-06
3.11559e-07
1.18157e-06
2.26496e-07
1.21829e-06
1.09717e-07
1.23851e-06
-2.25697e-08
1.24696e-06
-1.64468e-07
1.24245e-06
-2.95985e-07
1.21665e-06
-4.15726e-07
1.17954e-06
-5.19604e-07
1.13078e-06
-5.74967e-07
1.06411e-06
-5.84629e-07
9.86324e-07
-5.65575e-07
9.08147e-07
-5.23216e-07
8.47613e-07
-4.70561e-07
8.11413e-07
-4.13895e-07
7.92141e-07
-3.57626e-07
7.84325e-07
-3.10181e-07
7.81924e-07
-2.67303e-07
7.77495e-07
-2.25766e-07
7.72616e-07
-1.9375e-07
7.74325e-07
-1.68803e-07
7.81062e-07
-1.3974e-07
7.84554e-07
-1.0521e-07
7.82579e-07
-7.83871e-08
7.81276e-07
-6.31261e-08
7.85928e-07
-5.43491e-08
7.94692e-07
-4.18885e-08
8.01761e-07
-2.69699e-08
8.03751e-07
-1.45745e-08
8.02572e-07
-9.12533e-09
8.0154e-07
-1.12492e-08
8.0407e-07
-1.36156e-08
8.08699e-07
-1.78175e-08
8.14531e-07
-1.61692e-08
8.19147e-07
-1.68847e-08
-1.20317e-08
1.08776e-06
3.46836e-07
1.11682e-06
3.3846e-07
1.14549e-06
3.27475e-07
1.18599e-06
3.20038e-07
1.23788e-06
3.1558e-07
1.28103e-06
2.68406e-07
1.3219e-06
1.85627e-07
1.35487e-06
7.67493e-08
1.36693e-06
-3.46311e-08
1.35769e-06
-1.55227e-07
1.34313e-06
-2.8143e-07
1.30142e-06
-3.74015e-07
1.22155e-06
-4.39728e-07
1.13626e-06
-4.89681e-07
1.0542e-06
-5.02569e-07
9.78422e-07
-4.89798e-07
9.20017e-07
-4.64811e-07
8.76753e-07
-4.27297e-07
8.48731e-07
-3.85873e-07
8.33136e-07
-3.42031e-07