/*--------------------------------*- C++ -*----------------------------------*\
| =========                 |                                                 |
| \\      /  F ield         | OpenFOAM: The Open Source CFD Toolbox           |
|  \\    /   O peration     | Version:  2112                                  |
|   \\  /    A nd           | Website:  www.openfoam.com                      |
|    \\/     M anipulation  |                                                 |
\*---------------------------------------------------------------------------*/
FoamFile
{
    version     2.0;
    format      ascii;
    arch        "LSB;label=32;scalar=64";
    class       volVectorField;
    location    "0.4";
    object      U;
}
// * * * * * * * * * * * * * * * * * * * * * * * * * * * * * * * * * * * * * //

dimensions      [0 1 -1 0 0 0 0];

internalField   nonuniform List<vector> 
1880
(
(0.098911 0.000588384 0)
(0.0985297 0.00118783 0)
(0.0971569 0.00127465 0)
(0.0959931 0.00138217 0)
(0.0939468 0.00130999 0)
(0.0925411 0.00143588 0)
(0.0904107 0.00135814 0)
(0.089004 0.00151375 0)
(0.0867802 0.00133126 0)
(0.0853988 0.00151368 0)
(0.0830769 0.00130395 0)
(0.0816097 0.00155301 0)
(0.0792147 0.00125461 0)
(0.0776807 0.0015572 0)
(0.0751699 0.00130511 0)
(0.0735344 0.00161907 0)
(0.0707342 0.00136961 0)
(0.0692169 0.00160974 0)
(0.0656924 0.0015233 0)
(0.0645181 0.00175068 0)
(0.0599473 0.00181431 0)
(0.0589215 0.00194269 0)
(0.0534483 0.00196042 0)
(0.0520725 0.00245885 0)
(0.045632 0.00238777 0)
(0.0432301 0.00339272 0)
(0.0358238 0.00274764 0)
(0.0315032 0.00389376 0)
(0.0245164 0.00322279 0)
(0.0167574 0.00311354 0)
(0.0996273 0.00077341 0)
(0.100648 0.00131783 0)
(0.100324 0.00177709 0)
(0.101181 0.00161849 0)
(0.101011 0.00203652 0)
(0.101134 0.00171752 0)
(0.101457 0.00225789 0)
(0.10066 0.00189406 0)
(0.101657 0.00241739 0)
(0.100127 0.00204306 0)
(0.101363 0.00250583 0)
(0.0996897 0.0022198 0)
(0.10059 0.00260382 0)
(0.0990651 0.00255817 0)
(0.0996233 0.00256795 0)
(0.097837 0.00308854 0)
(0.0985723 0.00259513 0)
(0.0963327 0.00354005 0)
(0.0966264 0.00320061 0)
(0.0946546 0.0036102 0)
(0.0941106 0.00415554 0)
(0.0917826 0.00419181 0)
(0.0918459 0.00486006 0)
(0.0868169 0.00552415 0)
(0.0887823 0.00611154 0)
(0.0810058 0.00659576 0)
(0.0834386 0.00846976 0)
(0.0736495 0.00849706 0)
(0.0763362 0.0102035 0)
(0.0611126 0.0117993 0)
(0.0999976 0.000323043 0)
(0.100054 0.000602952 0)
(0.100671 0.00107586 0)
(0.100538 0.00100703 0)
(0.101401 0.00155592 0)
(0.100954 0.00107078 0)
(0.101879 0.00189928 0)
(0.101237 0.00132588 0)
(0.102155 0.00196746 0)
(0.101496 0.0018604 0)
(0.102282 0.00189427 0)
(0.10171 0.00222912 0)
(0.102251 0.00231606 0)
(0.101776 0.00208212 0)
(0.102317 0.00318716 0)
(0.101239 0.00209975 0)
(0.102505 0.00364062 0)
(0.100508 0.00285063 0)
(0.102056 0.00406276 0)
(0.100147 0.00342644 0)
(0.100802 0.0055221 0)
(0.0993167 0.00364697 0)
(0.0998375 0.00714173 0)
(0.0969829 0.00547985 0)
(0.0990091 0.008054 0)
(0.0942548 0.00821328 0)
(0.096522 0.0110091 0)
(0.0913217 0.00958402 0)
(0.0928208 0.0157545 0)
(0.0863154 0.013876 0)
(0.0999368 0.00045422 0)
(0.100062 0.000396882 0)
(0.100433 0.00117107 0)
(0.100245 0.000960657 0)
(0.101028 0.00158315 0)
(0.10055 0.00121244 0)
(0.101458 0.0018586 0)
(0.100932 0.00147274 0)
(0.101649 0.00203236 0)
(0.101295 0.00187149 0)
(0.101873 0.00215516 0)
(0.101438 0.0022013 0)
(0.102161 0.00254467 0)
(0.101479 0.00228338 0)
(0.102354 0.00325137 0)
(0.101439 0.00251134 0)
(0.102328 0.00374147 0)
(0.101362 0.00332246 0)
(0.102197 0.00424199 0)
(0.10098 0.00413089 0)
(0.101926 0.0055879 0)
(0.100631 0.00480737 0)
(0.101077 0.00713866 0)
(0.100099 0.00684813 0)
(0.100507 0.00840896 0)
(0.0985012 0.00949122 0)
(0.100242 0.0113771 0)
(0.0970341 0.0124921 0)
(0.0982098 0.0147735 0)
(0.0961703 0.0175168 0)
(0.0999623 0.000285154 0)
(0.100084 0.000263405 0)
(0.100264 0.000836333 0)
(0.100274 0.000641945 0)
(0.100636 0.00131984 0)
(0.100588 0.000808208 0)
(0.101017 0.00167786 0)
(0.100946 0.00104834 0)
(0.101265 0.0018533 0)
(0.101263 0.00146662 0)
(0.101521 0.00206785 0)
(0.101497 0.00169782 0)
(0.101697 0.00269296 0)
(0.101752 0.00164046 0)
(0.101808 0.00352336 0)
(0.101887 0.00200461 0)
(0.101809 0.00392311 0)
(0.101991 0.002982 0)
(0.101717 0.00447248 0)
(0.101858 0.00381463 0)
(0.101647 0.00593878 0)
(0.101674 0.00464494 0)
(0.101254 0.00750917 0)
(0.10142 0.00666928 0)
(0.100938 0.00904772 0)
(0.100935 0.00918744 0)
(0.100711 0.0122904 0)
(0.100607 0.011842 0)
(0.100225 0.0163423 0)
(0.100266 0.0163005 0)
(0.0999992 0.000256034 0)
(0.100021 0.000242522 0)
(0.100286 0.000688273 0)
(0.100157 0.000658325 0)
(0.10056 0.00109295 0)
(0.100471 0.000905297 0)
(0.100823 0.00145714 0)
(0.10092 0.00110963 0)
(0.100993 0.00174053 0)
(0.101273 0.00143171 0)
(0.101308 0.00202415 0)
(0.101455 0.00172482 0)
(0.101579 0.00254499 0)
(0.101752 0.00184594 0)
(0.101678 0.00330603 0)
(0.102042 0.0022447 0)
(0.101713 0.00381204 0)
(0.102225 0.00320838 0)
(0.101844 0.00437275 0)
(0.102114 0.00419549 0)
(0.101953 0.00571386 0)
(0.102202 0.00522026 0)
(0.101753 0.00724398 0)
(0.1022 0.00722304 0)
(0.101872 0.0089149 0)
(0.101934 0.00966967 0)
(0.10217 0.0118105 0)
(0.10216 0.0127765 0)
(0.102154 0.015279 0)
(0.10275 0.0169106 0)
(0.0999965 0.0001651 0)
(0.100044 0.000211312 0)
(0.100217 0.000553731 0)
(0.100173 0.000487557 0)
(0.100439 0.000958873 0)
(0.100434 0.000668146 0)
(0.100711 0.00132008 0)
(0.100847 0.000869007 0)
(0.100906 0.00158905 0)
(0.101233 0.00118025 0)
(0.101208 0.001906 0)
(0.101498 0.00145099 0)
(0.101491 0.00244756 0)
(0.101826 0.00164056 0)
(0.101705 0.00312953 0)
(0.102131 0.00215364 0)
(0.101846 0.00365599 0)
(0.10245 0.00306517 0)
(0.102048 0.00435135 0)
(0.102495 0.00401307 0)
(0.102338 0.00567839 0)
(0.102736 0.00515349 0)
(0.102391 0.00717513 0)
(0.103008 0.00705041 0)
(0.10267 0.00897322 0)
(0.103229 0.0092518 0)
(0.103222 0.0118857 0)
(0.103817 0.01209 0)
(0.103885 0.0152483 0)
(0.104798 0.0159116 0)
(0.100034 9.5773e-05 0)
(0.099987 0.000230898 0)
(0.100234 0.000384813 0)
(0.100123 0.000478769 0)
(0.100411 0.000718695 0)
(0.100405 0.000652272 0)
(0.100642 0.00107469 0)
(0.100841 0.000816082 0)
(0.10086 0.00139148 0)
(0.101212 0.00108034 0)
(0.101245 0.0017231 0)
(0.101468 0.00139569 0)
(0.101589 0.00219028 0)
(0.101858 0.00168827 0)
(0.101844 0.00281426 0)
(0.102244 0.00222683 0)
(0.102093 0.00338627 0)
(0.102627 0.00309895 0)
(0.102442 0.00412071 0)
(0.102817 0.0040516 0)
(0.102851 0.00539463 0)
(0.103243 0.00524083 0)
(0.103157 0.00683273 0)
(0.103672 0.00706196 0)
(0.103732 0.00860673 0)
(0.104211 0.00919517 0)
(0.104512 0.0112001 0)
(0.105203 0.0119887 0)
(0.105556 0.0142768 0)
(0.106509 0.0154088 0)
(0.100029 5.25377e-05 0)
(0.099992 0.000186881 0)
(0.100208 0.00030687 0)
(0.10013 0.000355651 0)
(0.100387 0.000600482 0)
(0.100394 0.000502196 0)
(0.100633 0.000904387 0)
(0.100826 0.000678231 0)
(0.100872 0.00118021 0)
(0.101227 0.000938466 0)
(0.101283 0.00150636 0)
(0.101525 0.00124728 0)
(0.101684 0.00195155 0)
(0.101939 0.00157737 0)
(0.102044 0.00252727 0)
(0.102371 0.00213122 0)
(0.102379 0.00312442 0)
(0.102878 0.00294342 0)
(0.102823 0.00389849 0)
(0.103208 0.00387349 0)
(0.103374 0.00509639 0)
(0.103796 0.0050747 0)
(0.103882 0.00650273 0)
(0.104436 0.00675346 0)
(0.104654 0.00826492 0)
(0.105265 0.008706 0)
(0.105689 0.0106788 0)
(0.106501 0.0112834 0)
(0.107078 0.0134706 0)
(0.108134 0.0143893 0)
(0.10004 1.77956e-06 0)
(0.099979 0.000177726 0)
(0.100196 0.000185264 0)
(0.100137 0.000294273 0)
(0.10037 0.000417056 0)
(0.100416 0.000407401 0)
(0.100633 0.000685677 0)
(0.100843 0.000560179 0)
(0.100928 0.000944464 0)
(0.101238 0.000808341 0)
(0.101397 0.00124082 0)
(0.101576 0.00114215 0)
(0.101829 0.00163192 0)
(0.102067 0.00150408 0)
(0.102245 0.00217588 0)
(0.102558 0.00203693 0)
(0.102693 0.00279432 0)
(0.10314 0.00279624 0)
(0.103248 0.0035697 0)
(0.103605 0.00370093 0)
(0.103919 0.00468336 0)
(0.104348 0.00489152 0)
(0.104618 0.0060216 0)
(0.105154 0.00644788 0)
(0.105578 0.00769486 0)
(0.106234 0.00828212 0)
(0.106812 0.00985253 0)
(0.107695 0.0106454 0)
(0.108468 0.012398 0)
(0.109553 0.0134159 0)
(0.100035 -2.0787e-05 0)
(0.0999838 0.000121836 0)
(0.100179 0.000106552 0)
(0.100157 0.000179201 0)
(0.10037 0.000273593 0)
(0.100448 0.000268189 0)
(0.100662 0.00047855 0)
(0.100884 0.000417342 0)
(0.100996 0.000695897 0)
(0.101302 0.000646962 0)
(0.101508 0.000975341 0)
(0.101681 0.000960431 0)
(0.101988 0.00134084 0)
(0.102224 0.00131967 0)
(0.102474 0.00184569 0)
(0.10278 0.00183601 0)
(0.103004 0.00244962 0)
(0.103459 0.00254792 0)
(0.103661 0.00320519 0)
(0.104031 0.00340787 0)
(0.104458 0.00423845 0)
(0.104915 0.00454075 0)
(0.105308 0.00551109 0)
(0.105889 0.00596415 0)
(0.106429 0.0070804 0)
(0.10716 0.00764428 0)
(0.10786 0.00901577 0)
(0.108782 0.00978268 0)
(0.109711 0.0112786 0)
(0.110848 0.012233 0)
(0.100032 -4.94079e-05 0)
(0.099991 7.57623e-05 0)
(0.100167 8.57237e-06 0)
(0.100186 7.80684e-05 0)
(0.10038 0.000111495 0)
(0.100497 0.000134994 0)
(0.100713 0.000268009 0)
(0.100939 0.000268276 0)
(0.101098 0.000451741 0)
(0.10138 0.000485812 0)
(0.101647 0.000699753 0)
(0.101814 0.000788186 0)
(0.102157 0.00103567 0)
(0.102427 0.00112826 0)
(0.102707 0.00151299 0)
(0.10303 0.00160868 0)
(0.103338 0.00209146 0)
(0.103784 0.00228193 0)
(0.104085 0.00280086 0)
(0.104468 0.00309326 0)
(0.104984 0.00374801 0)
(0.105484 0.00415175 0)
(0.105975 0.00493992 0)
(0.106591 0.00544731 0)
(0.107239 0.00637365 0)
(0.108023 0.00698828 0)
(0.108823 0.00808925 0)
(0.109781 0.00887814 0)
(0.110823 0.0101053 0)
(0.111993 0.0110351 0)
(0.100027 -6.63593e-05 0)
(0.100004 4.9817e-06 0)
(0.100164 -9.05896e-05 0)
(0.100225 -5.92788e-05 0)
(0.100414 -6.78133e-05 0)
(0.100566 -4.55098e-05 0)
(0.10079 2.4493e-05 0)
(0.101031 5.62024e-05 0)
(0.10122 0.000166387 0)
(0.101503 0.000236471 0)
(0.101803 0.000384879 0)
(0.101983 0.000502852 0)
(0.102351 0.000691095 0)
(0.102653 0.000818578 0)
(0.10296 0.00112185 0)
(0.103312 0.00126813 0)
(0.103675 0.00166097 0)
(0.104137 0.00189503 0)
(0.10451 0.00232214 0)
(0.104914 0.00264072 0)
(0.105502 0.00318789 0)
(0.10605 0.00361393 0)
(0.106606 0.00428727 0)
(0.107274 0.00478433 0)
(0.108 0.00558165 0)
(0.108827 0.00617207 0)
(0.109715 0.00708732 0)
(0.110695 0.00783299 0)
(0.111813 0.00885458 0)
(0.113025 0.0097067 0)
(0.100022 -8.73429e-05 0)
(0.100016 -6.71788e-05 0)
(0.100165 -0.000194719 0)
(0.100266 -0.000191288 0)
(0.100457 -0.00023347 0)
(0.100644 -0.000206134 0)
(0.100887 -0.000178407 0)
(0.101136 -0.000118357 0)
(0.101363 -6.14901e-05 0)
(0.101649 4.07591e-05 0)
(0.101976 0.000133596 0)
(0.102186 0.000278761 0)
(0.102565 0.000416267 0)
(0.102911 0.000565042 0)
(0.103238 0.000802568 0)
(0.103617 0.00097655 0)
(0.104037 0.0012894 0)
(0.104508 0.00155432 0)
(0.10494 0.00188836 0)
(0.10538 0.00222239 0)
(0.106018 0.00266947 0)
(0.106614 0.00309518 0)
(0.107225 0.00365919 0)
(0.107929 0.00414503 0)
(0.108726 0.00480618 0)
(0.109586 0.00538198 0)
(0.11054 0.00612027 0)
(0.111544 0.0068088 0)
(0.112715 0.00764853 0)
(0.113953 0.00842206 0)
(0.100017 -0.000114512 0)
(0.10004 -0.000176709 0)
(0.100193 -0.000351358 0)
(0.100341 -0.000398657 0)
(0.100552 -0.000478772 0)
(0.100774 -0.000466106 0)
(0.10104 -0.000475016 0)
(0.101301 -0.000416325 0)
(0.101556 -0.000396745 0)
(0.101852 -0.000303475 0)
(0.102193 -0.000243573 0)
(0.10243 -0.000112707 0)
(0.102821 -4.80283e-06 0)
(0.103199 0.000135174 0)
(0.103547 0.000321786 0)
(0.103949 0.000501918 0)
(0.104415 0.000757602 0)
(0.104897 0.00101958 0)
(0.10538 0.00129354 0)
(0.105855 0.00160996 0)
(0.106532 0.00199299 0)
(0.107168 0.0023875 0)
(0.107825 0.00287007 0)
(0.108562 0.00331871 0)
(0.109424 0.00387773 0)
(0.110304 0.00440361 0)
(0.11131 0.0050121 0)
(0.112327 0.0056235 0)
(0.113532 0.00632714 0)
(0.114789 0.00700807 0)
(0.100013 -0.000137954 0)
(0.10006 -0.000262123 0)
(0.100229 -0.000461608 0)
(0.10043 -0.000529891 0)
(0.100677 -0.000620466 0)
(0.100934 -0.000611506 0)
(0.10123 -0.000638405 0)
(0.101501 -0.00058541 0)
(0.101786 -0.00059391 0)
(0.102092 -0.000510483 0)
(0.102449 -0.000476272 0)
(0.102717 -0.000358491 0)
(0.103128 -0.000268007 0)
(0.103532 -0.000137872 0)
(0.103916 8.41168e-06 0)
(0.104333 0.000186814 0)
(0.104845 0.000392558 0)
(0.105332 0.000642972 0)
(0.105864 0.00086244 0)
(0.10638 0.00114867 0)
(0.107093 0.00147094 0)
(0.107743 0.00181889 0)
(0.108452 0.00222035 0)
(0.109199 0.002636 0)
(0.110127 0.00309617 0)
(0.111014 0.0035671 0)
(0.112077 0.00405121 0)
(0.1131 0.00457325 0)
(0.114343 0.00513966 0)
(0.115577 0.0057314 0)
(0.10001 -0.000223741 0)
(0.100109 -0.000515149 0)
(0.100327 -0.000796932 0)
(0.100591 -0.000910868 0)
(0.100885 -0.00101675 0)
(0.101164 -0.00101878 0)
(0.101491 -0.00105772 0)
(0.101758 -0.00102492 0)
(0.102082 -0.00105203 0)
(0.102389 -0.000984995 0)
(0.10277 -0.000959896 0)
(0.103055 -0.000861053 0)
(0.103503 -0.000783467 0)
(0.103904 -0.000674225 0)
(0.104333 -0.000562133 0)
(0.10474 -0.000397386 0)
(0.105306 -0.000237114 0)
(0.105774 -3.12515e-05 0)
(0.106366 0.000143477 0)
(0.10689 0.000392407 0)
(0.10765 0.000670343 0)
(0.10828 0.000964359 0)
(0.109068 0.00129553 0)
(0.109802 0.00165854 0)
(0.110807 0.00203518 0)
(0.111666 0.00244009 0)
(0.112794 0.0028431 0)
(0.113784 0.00329323 0)
(0.115095 0.00375928 0)
(0.116297 0.00424874 0)
(0.0999992 -0.000245908 0)
(0.100221 -0.000583904 0)
(0.10056 -0.000847407 0)
(0.100946 -0.000960413 0)
(0.101297 -0.00105306 0)
(0.101606 -0.00107253 0)
(0.101938 -0.00112542 0)
(0.102204 -0.00113048 0)
(0.102538 -0.00117217 0)
(0.102838 -0.00112291 0)
(0.103216 -0.00111926 0)
(0.103492 -0.00105606 0)
(0.10394 -0.000995428 0)
(0.104299 -0.00091758 0)
(0.104739 -0.000840997 0)
(0.105097 -0.00070364 0)
(0.105659 -0.000582132 0)
(0.10608 -0.000413758 0)
(0.106693 -0.000271996 0)
(0.107195 -6.01545e-05 0)
(0.107944 0.000171148 0)
(0.108523 0.00040976 0)
(0.109333 0.000684047 0)
(0.110047 0.00100466 0)
(0.111069 0.00129899 0)
(0.111925 0.00162067 0)
(0.113084 0.00192572 0)
(0.114069 0.00228866 0)
(0.115406 0.00265919 0)
(0.11657 0.00307321 0)
(0.0999739 -0.000697164 0)
(0.100349 -0.0013541 0)
(0.100695 -0.00156997 0)
(0.101113 -0.00162041 0)
(0.10132 -0.00167459 0)
(0.101552 -0.00170971 0)
(0.101659 -0.00175468 0)
(0.101821 -0.00177402 0)
(0.101882 -0.00179052 0)
(0.102026 -0.00173255 0)
(0.102078 -0.00170917 0)
(0.102202 -0.00165771 0)
(0.102291 -0.00160636 0)
(0.102428 -0.00154521 0)
(0.102476 -0.00146947 0)
(0.102654 -0.00134524 0)
(0.102833 -0.00125857 0)
(0.103063 -0.00114595 0)
(0.103256 -0.00103291 0)
(0.103579 -0.000847784 0)
(0.103921 -0.000666206 0)
(0.1044 -0.000484856 0)
(0.104885 -0.000308404 0)
(0.105526 -8.02493e-05 0)
(0.106175 0.000120364 0)
(0.106989 0.000373746 0)
(0.107849 0.000615205 0)
(0.108926 0.000902062 0)
(0.1101 0.00115135 0)
(0.111461 0.00142595 0)
(0.099017 -0.000604085 0)
(0.0984581 -0.0011413 0)
(0.0974158 -0.00127751 0)
(0.0960229 -0.00128699 0)
(0.094363 -0.00129841 0)
(0.0927795 -0.00131277 0)
(0.0911513 -0.0013309 0)
(0.0896116 -0.00133365 0)
(0.0879916 -0.00129072 0)
(0.086541 -0.00124278 0)
(0.0849844 -0.00122706 0)
(0.0835685 -0.00117852 0)
(0.0821064 -0.00110889 0)
(0.0808273 -0.00105374 0)
(0.0794557 -0.00101902 0)
(0.0783197 -0.000970094 0)
(0.0771085 -0.000904831 0)
(0.0761381 -0.000810556 0)
(0.0750979 -0.000716421 0)
(0.0743912 -0.000648393 0)
(0.0735735 -0.000612771 0)
(0.0731013 -0.000536163 0)
(0.0725113 -0.000402019 0)
(0.0724 -0.000243204 0)
(0.0721566 -0.000118512 0)
(0.072426 -3.24253e-05 0)
(0.0724666 2.6441e-05 0)
(0.0730889 9.75334e-05 0)
(0.0734365 0.000206818 0)
(0.0744731 0.000332632 0)
(0.011432 0.00211607 0)
(0.0410238 0.0138821 0)
(0.03131 0.0114506 0)
(0.0632064 0.0258949 8.43128e-22)
(0.0459771 0.0205379 6.86684e-22)
(0.0821187 0.0343326 0)
(0.0599699 0.028236 2.95054e-22)
(0.0994682 0.0404447 2.01051e-23)
(0.0779047 0.0356967 6.19793e-22)
(0.121521 0.0438378 0)
(0.0654416 0.0116869 0)
(0.0747221 0.0214736 0)
(0.0795632 0.023081 0)
(0.0874091 0.0322273 0)
(0.0918115 0.0315256 0)
(0.103148 0.0425842 1.7679e-22)
(0.104825 0.0397784 5.97747e-23)
(0.115567 0.0489136 -8.46831e-23)
(0.12254 0.0475283 -4.89047e-22)
(0.136428 0.0536779 -4.68141e-22)
(0.087325 0.0201594 0)
(0.0899101 0.0218165 0)
(0.0961424 0.0311283 0)
(0.0986011 0.0304183 0)
(0.103749 0.0346555 0)
(0.108646 0.0358668 -1.76789e-22)
(0.115627 0.044147 -5.97745e-23)
(0.118454 0.0382081 8.46833e-23)
(0.128112 0.0411273 2.59433e-22)
(0.138125 0.0426821 4.68148e-22)
(0.0959107 0.0208851 -3.72193e-22)
(0.0974782 0.0228068 0)
(0.101075 0.0265002 -3.00047e-22)
(0.105099 0.0312121 -2.47394e-22)
(0.108631 0.0324863 -1.78715e-22)
(0.112467 0.0338146 0)
(0.119248 0.0403107 0)
(0.124826 0.0404816 1.27764e-22)
(0.129776 0.0373206 2.71243e-22)
(0.137381 0.0373567 4.15503e-22)
(0.0998868 0.0214954 3.72194e-22)
(0.102346 0.021958 0)
(0.104076 0.0274285 3.00048e-22)
(0.108337 0.0278886 2.47394e-22)
(0.111518 0.0313827 1.78715e-22)
(0.115223 0.0304247 0)
(0.120041 0.0357593 0)
(0.127251 0.0352551 -1.27763e-22)
(0.132072 0.0342278 -2.71245e-22)
(0.13784 0.0316937 -4.15507e-22)
(0.102717 0.0203129 0)
(0.104689 0.0214554 -2.69472e-22)
(0.10706 0.0244054 0)
(0.110886 0.0261937 -1.75296e-22)
(0.113958 0.0291138 0)
(0.117641 0.0284582 0)
(0.122066 0.0319012 0)
(0.12794 0.0324304 -1.48037e-22)
(0.132864 0.031076 0)
(0.137667 0.0280099 0)
(0.104935 0.0196092 2.65166e-22)
(0.10728 0.0199572 5.07387e-22)
(0.109304 0.0234332 1.97366e-22)
(0.112613 0.0237707 1.75297e-22)
(0.115791 0.0266489 0)
(0.119619 0.0260188 -2.16858e-23)
(0.123414 0.0286 0)
(0.128877 0.0282406 1.48038e-22)
(0.133626 0.0281834 0)
(0.137666 0.02453 0)
(0.107095 0.0181264 -2.65167e-22)
(0.109121 0.0188387 -2.37915e-22)
(0.111378 0.0212797 -1.97366e-22)
(0.114515 0.0218576 0)
(0.117556 0.0241477 0)
(0.121021 0.0236974 2.16859e-23)
(0.124681 0.0254854 0)
(0.12929 0.0252583 0)
(0.133894 0.025127 0)
(0.137668 0.0218679 0)
(0.108907 0.0168717 0)
(0.110909 0.0173066 -1.86755e-22)
(0.113143 0.0195808 0)
(0.115993 0.0198137 -1.03798e-22)
(0.118898 0.0216946 0)
(0.122223 0.02141 0)
(0.125626 0.0228284 7.80973e-23)
(0.129888 0.0219033 1.59314e-22)
(0.133948 0.0221536 0)
(0.137282 0.019614 3.33628e-22)
(0.110556 0.0153577 0)
(0.112408 0.0158677 1.86756e-22)
(0.114623 0.0176399 0)
(0.11734 0.0179033 1.03798e-22)
(0.120095 0.0194176 0)
(0.123136 0.0190466 0)
(0.126437 0.0201555 -7.80974e-23)
(0.130222 0.0194603 -1.59314e-22)
(0.133749 0.0195086 0)
(0.137005 0.0171525 -3.33629e-22)
(0.111974 0.0138803 8.68713e-23)
(0.113767 0.014304 0)
(0.115926 0.0158009 0)
(0.118448 0.0159433 3.66069e-23)
(0.121078 0.0171913 0)
(0.123978 0.0169006 0)
(0.126971 0.0177292 0)
(0.130394 0.0168162 -7.8708e-23)
(0.133715 0.016884 0)
(0.136729 0.0150906 0)
(0.113221 0.0123594 -7.81982e-24)
(0.114936 0.0127679 0)
(0.117013 0.0139926 5.05091e-23)
(0.119406 0.0141314 -5.78723e-24)
(0.121887 0.0150935 0)
(0.124589 0.0147881 0)
(0.127453 0.0154473 -4.53212e-23)
(0.130554 0.0146991 7.87082e-23)
(0.133491 0.0145818 -1.1109e-22)
(0.136285 0.0129627 -1.46081e-22)
(0.114321 0.0108167 -6.66068e-24)
(0.115987 0.0111767 0)
(0.117982 0.0121742 -5.66587e-24)
(0.120246 0.0122744 -4.72289e-24)
(0.122606 0.0130548 5.04863e-24)
(0.125139 0.0128022 1.89313e-23)
(0.127784 0.0132265 -6.89223e-25)
(0.130623 0.0124943 -7.59198e-23)
(0.133362 0.0123755 3.76313e-24)
(0.135951 0.0110405 5.97519e-24)
(0.115285 0.00932854 -7.23911e-23)
(0.116897 0.00966535 0)
(0.118805 0.0104959 -4.48434e-23)
(0.120942 0.0105986 -2.60969e-23)
(0.123182 0.0111947 -5.04863e-24)
(0.125576 0.0109694 -3.96371e-23)
(0.128076 0.0112745 4.60106e-23)
(0.130665 0.0106396 7.59199e-23)
(0.133171 0.0104269 1.07327e-22)
(0.135599 0.00925174 1.40106e-22)
(0.116173 0.00775819 0)
(0.117753 0.00805878 0)
(0.119592 0.00872837 0)
(0.121621 0.00882157 0)
(0.123755 0.0092842 0)
(0.125993 0.00909629 2.07058e-23)
(0.128323 0.00927323 0)
(0.130717 0.00870813 0)
(0.133047 0.00849118 0)
(0.135295 0.00750659 0)
(0.116981 0.00635103 0)
(0.118487 0.00664322 0)
(0.120274 0.00720961 0)
(0.122182 0.00732272 0)
(0.124242 0.0076817 0)
(0.126349 0.00752766 1.12994e-23)
(0.128568 0.00762072 0)
(0.130771 0.00712735 0)
(0.132957 0.0068709 0)
(0.13505 0.00602017 0)
(0.117799 0.00473313 0)
(0.11921 0.00498896 0)
(0.121002 0.00543645 1.51485e-23)
(0.122724 0.00555007 0)
(0.124738 0.00582495 -1.5349e-24)
(0.126615 0.00571455 -1.12994e-23)
(0.128739 0.00575764 0)
(0.130682 0.00535529 -3.43757e-23)
(0.132767 0.00511852 0)
(0.134608 0.00443054 0)
(0.118107 0.00346631 0)
(0.119181 0.00372388 0)
(0.121001 0.0041002 -1.51486e-23)
(0.122351 0.00423856 0)
(0.124406 0.004443 1.53491e-24)
(0.125886 0.00436031 0)
(0.128044 0.00433702 0)
(0.12954 0.00398415 3.43759e-23)
(0.131648 0.0037139 0)
(0.132998 0.00312964 0)
(0.112902 0.00165242 -6.34441e-24)
(0.113389 0.00183497 -4.95974e-24)
(0.115109 0.00208675 -3.36841e-24)
(0.115787 0.00223029 0)
(0.117807 0.00237757 5.11101e-25)
(0.118598 0.00237166 0)
(0.120805 0.00235494 5.36898e-24)
(0.121563 0.00214569 0)
(0.12376 0.00194774 1.11952e-23)
(0.124214 0.00156963 1.44222e-23)
(0.075203 0.000459198 6.34369e-24)
(0.0754763 0.000567193 4.95912e-24)
(0.0766883 0.000666809 3.36797e-24)
(0.0772852 0.00070823 0)
(0.0788947 0.000696944 -5.11027e-25)
(0.0795975 0.000630577 0)
(0.0813457 0.000513657 -5.36811e-24)
(0.0818063 0.000358469 0)
(0.0833553 0.000176371 -1.11932e-23)
(0.0831681 -2.20543e-05 -1.44195e-23)
(0.00975537 -0.00383012 0)
(0.0196068 0.00499836 0)
(0.0115604 0.00873497 0)
(0.0134534 0.0013672 0)
(-0.00608639 0.0129446 0)
(-0.0520615 0.0174142 0)
(-0.0871675 0.013991 0)
(-0.117085 0.0102874 0)
(-0.132073 0.00591812 0)
(-0.138197 0.00215187 0)
(-0.134838 -0.000649238 0)
(-0.126396 -0.00278765 0)
(-0.11357 -0.00395172 0)
(-0.0978724 -0.00525926 0)
(-0.0822683 -0.00535856 0)
(-0.060846 -0.00620788 0)
(-0.0436466 -0.00615794 0)
(-0.0213403 -0.00627106 0)
(-0.00227978 -0.00551194 0)
(0.0157474 -0.00458536 0)
(0.030265 -0.00336594 0)
(0.0416621 -0.00222475 0)
(0.0499985 -0.00127907 0)
(0.0559695 -0.000556161 0)
(0.0600918 5.06739e-06 0)
(0.0627634 0.000469294 0)
(0.0641284 0.00089178 0)
(0.0643717 0.00128954 0)
(0.0634963 0.0016201 0)
(0.0616837 0.00179577 0)
(0.0591111 0.00178144 0)
(0.0562033 0.00160646 0)
(0.0532414 0.0013305 0)
(0.0505538 0.00102154 0)
(0.0482652 0.000729776 0)
(0.0464101 0.000488072 0)
(0.0450509 0.000307967 0)
(0.0439017 0.000177929 0)
(0.0432876 0.000102668 0)
(0.042421 5.3501e-05 0)
(0.00840649 -0.0183986 0)
(0.015021 -0.0052254 0)
(0.0216402 -0.0047917 0)
(-0.011516 0.0121635 0)
(-0.0488795 0.0340561 0)
(-0.0846638 0.0372405 0)
(-0.104932 0.0302935 0)
(-0.126853 0.0217929 0)
(-0.131584 0.0101427 0)
(-0.13509 0.000676841 0)
(-0.125798 -0.0081273 0)
(-0.117014 -0.0131854 0)
(-0.100638 -0.0169426 0)
(-0.0852119 -0.0183132 0)
(-0.0687456 -0.0209044 0)
(-0.0487507 -0.0221399 0)
(-0.0304363 -0.0226549 0)
(-0.00886882 -0.0231835 0)
(0.0105695 -0.0212068 0)
(0.0290403 -0.0185453 0)
(0.0444759 -0.0150234 0)
(0.0570731 -0.0115956 0)
(0.0667254 -0.00866144 0)
(0.0742137 -0.00638563 0)
(0.0800129 -0.0046378 0)
(0.0846429 -0.00324684 0)
(0.0882416 -0.00200485 0)
(0.0911718 -0.000845222 0)
(0.0934456 0.000300434 0)
(0.0950708 0.00129325 0)
(0.0959182 0.00209254 0)
(0.0959741 0.00253397 0)
(0.0954412 0.00266956 0)
(0.094431 0.00247791 0)
(0.0934214 0.00218445 0)
(0.092289 0.00175813 0)
(0.0915579 0.00143318 0)
(0.0906995 0.00106237 0)
(0.0903782 0.00088657 0)
(0.0896931 0.000644051 0)
(0.00542647 -0.0216113 0)
(-0.00969481 -0.00422528 0)
(-0.0173841 0.0272874 0)
(-0.0359429 0.0483139 0)
(-0.0587552 0.0616373 0)
(-0.074947 0.0558348 0)
(-0.0875248 0.0439558 0)
(-0.0998235 0.0304781 0)
(-0.101261 0.0135847 0)
(-0.101018 -0.00109497 0)
(-0.0913968 -0.0138655 0)
(-0.08082 -0.0215042 0)
(-0.0668438 -0.0269971 0)
(-0.0525813 -0.0294527 0)
(-0.0376799 -0.0312245 0)
(-0.02244 -0.0341797 0)
(-0.00594097 -0.0357247 0)
(0.0112421 -0.0362454 0)
(0.0276363 -0.0337774 0)
(0.0427114 -0.029511 0)
(0.0554588 -0.023998 0)
(0.0660847 -0.0184522 0)
(0.0741896 -0.0137185 0)
(0.0803434 -0.010167 0)
(0.0851483 -0.00754513 0)
(0.0892212 -0.00556048 0)
(0.0924965 -0.00391801 0)
(0.0952452 -0.00255865 0)
(0.0976533 -0.00125408 0)
(0.100046 -2.19905e-05 0)
(0.102314 0.00118145 0)
(0.104198 0.00206951 0)
(0.105433 0.00260948 0)
(0.105975 0.00264657 0)
(0.105967 0.00241174 0)
(0.105662 0.00195127 0)
(0.105217 0.0015192 0)
(0.104882 0.00109641 0)
(0.104579 0.000838212 0)
(0.104445 0.00059733 0)
(0.00802553 -0.0127786 0)
(-0.0122907 0.0132029 0)
(-0.013436 0.0172952 0)
(-0.031013 0.047932 0)
(-0.046995 0.0614172 0)
(-0.0537059 0.0571507 0)
(-0.0596843 0.0468594 0)
(-0.0655773 0.0325217 0)
(-0.0650006 0.0128223 0)
(-0.0626703 -0.00583678 0)
(-0.0546494 -0.0222076 0)
(-0.0447175 -0.0313376 0)
(-0.0318461 -0.0371843 0)
(-0.0197913 -0.0396194 0)
(-0.00693251 -0.0418914 0)
(0.00745233 -0.0446387 0)
(0.0209969 -0.0467087 0)
(0.0345759 -0.0472206 0)
(0.0475757 -0.0442297 0)
(0.0592773 -0.0385119 0)
(0.068171 -0.0317399 0)
(0.0754972 -0.0248398 0)
(0.0815381 -0.0185992 0)
(0.0860351 -0.013948 0)
(0.0892805 -0.0107445 0)
(0.092343 -0.00831842 0)
(0.0951918 -0.00616002 0)
(0.0975377 -0.00443311 0)
(0.0991086 -0.00308217 0)
(0.100446 -0.00201467 0)
(0.101926 -0.000879713 0)
(0.103793 0.000236831 0)
(0.10567 0.0012854 0)
(0.107317 0.00196521 0)
(0.108342 0.00226861 0)
(0.108912 0.00217735 0)
(0.108912 0.00187597 0)
(0.108782 0.0014386 0)
(0.108485 0.00111733 0)
(0.108208 0.000709697 0)
(0.0114891 -0.0224653 0)
(-0.0120879 0.00941384 0)
(-0.0226458 0.035967 0)
(-0.0199519 0.0641372 0)
(-0.0223166 0.0761179 0)
(-0.0185007 0.068698 0)
(-0.0224211 0.0549648 0)
(-0.0237253 0.0368759 0)
(-0.0221434 0.0135893 0)
(-0.0183731 -0.00826048 0)
(-0.0125662 -0.027037 0)
(-0.00556077 -0.0387754 0)
(0.00366026 -0.0452095 0)
(0.0127171 -0.0483008 0)
(0.023911 -0.0509051 0)
(0.0356015 -0.0537971 0)
(0.0477162 -0.055309 0)
(0.0576298 -0.0553918 0)
(0.0655087 -0.0520702 0)
(0.0737976 -0.0444678 0)
(0.0799255 -0.0356698 0)
(0.083393 -0.0280326 0)
(0.086487 -0.0212101 0)
(0.0895844 -0.0156518 0)
(0.0915908 -0.0120644 0)
(0.0931639 -0.00988796 0)
(0.0951442 -0.00778622 0)
(0.0975954 -0.00549632 0)
(0.0994706 -0.00342624 0)
(0.100417 -0.00209894 0)
(0.100722 -0.00124104 0)
(0.101202 -0.000594819 0)
(0.102158 0.000123606 0)
(0.103645 0.000793383 0)
(0.105225 0.00134344 0)
(0.106717 0.00161927 0)
(0.107775 0.00167952 0)
(0.108493 0.00145675 0)
(0.108839 0.00129012 0)
(0.108979 0.000822176 0)
(-0.00695656 -0.0083427 0)
(-0.0191354 0.0425731 0)
(-0.00352334 0.0271332 0)
(0.00203668 0.0533089 0)
(0.00231419 0.0622607 0)
(0.00956571 0.0560109 0)
(0.0113054 0.0467931 0)
(0.0178571 0.0310368 0)
(0.0230923 0.0095646 0)
(0.0287444 -0.0123397 0)
(0.0336357 -0.0311392 0)
(0.0378225 -0.0430267 0)
(0.0427183 -0.0498398 0)
(0.048705 -0.0540394 0)
(0.0569268 -0.0577629 0)
(0.0667 -0.0612179 0)
(0.0756094 -0.0623864 0)
(0.0827311 -0.0600873 0)
(0.0848044 -0.0558839 0)
(0.0857417 -0.0486146 0)
(0.0885415 -0.0382585 0)
(0.089935 -0.029244 0)
(0.0899976 -0.0227833 0)
(0.0912499 -0.0173823 0)
(0.0930294 -0.0131177 0)
(0.0941765 -0.0107105 0)
(0.0949027 -0.00922539 0)
(0.0963584 -0.00743995 0)
(0.0983333 -0.00501023 0)
(0.0999437 -0.0028244 0)
(0.100419 -0.00136949 0)
(0.100135 -0.000740455 0)
(0.0997914 -0.00041808 0)
(0.100039 -0.000196142 0)
(0.10095 7.89061e-05 0)
(0.102411 0.000333583 0)
(0.103998 0.000556931 0)
(0.105643 0.000620851 0)
(0.106719 0.000707728 0)
(0.108041 0.000560682 0)
(-0.0628225 -0.00812883 0)
(-0.00449893 0.00519531 0)
(-0.0144251 0.0144045 0)
(0.02753 0.0547482 0)
(0.0404638 0.0706608 0)
(0.0554135 0.0641041 0)
(0.059068 0.0507073 0)
(0.0667255 0.0307469 0)
(0.0717982 0.00769354 0)
(0.075951 -0.0141971 0)
(0.0769156 -0.0318112 0)
(0.0763318 -0.0440825 0)
(0.0774571 -0.052124 0)
(0.0806946 -0.0583107 0)
(0.0863446 -0.0631207 0)
(0.0937688 -0.0659981 0)
(0.098566 -0.066529 0)
(0.100995 -0.0625814 0)
(0.101229 -0.054927 0)
(0.0970312 -0.047342 0)
(0.093936 -0.0383784 0)
(0.0937695 -0.0286912 0)
(0.0933088 -0.0218422 0)
(0.0929875 -0.017622 0)
(0.0938948 -0.0140524 0)
(0.0953427 -0.0111411 0)
(0.0960537 -0.00927542 0)
(0.0964779 -0.0079279 0)
(0.097365 -0.00601562 0)
(0.0988853 -0.00364194 0)
(0.10019 -0.00143498 0)
(0.100728 -0.000185627 0)
(0.10052 0.00018039 0)
(0.100112 -5.42252e-05 0)
(0.0999755 -0.000376712 0)
(0.100507 -0.000571572 0)
(0.101296 -0.000615039 0)
(0.103008 -0.000465596 0)
(0.10388 -0.000385022 0)
(0.106209 -0.000115551 0)
(0.106832 0.0383232 0)
(0.0736295 0.0165419 0)
(0.0427148 0.00615121 0)
(0.0360497 0.0167891 0)
(0.05497 0.0407246 0)
(0.0781064 0.0446914 0)
(0.091361 0.038972 0)
(0.102576 0.0237252 0)
(0.108712 0.00445668 0)
(0.11104 -0.0145697 0)
(0.109464 -0.0310001 0)
(0.107029 -0.0441203 0)
(0.107244 -0.0540971 0)
(0.110576 -0.0610659 0)
(0.113564 -0.0668155 0)
(0.115435 -0.0695481 0)
(0.115413 -0.0675272 0)
(0.110753 -0.0620309 0)
(0.105949 -0.0530343 0)
(0.101393 -0.0436099 0)
(0.096263 -0.0361254 0)
(0.0941569 -0.0288573 0)
(0.0947664 -0.022152 0)
(0.0959292 -0.0175781 0)
(0.0969559 -0.0145572 0)
(0.0980935 -0.0120885 0)
(0.0988045 -0.00992938 0)
(0.0989915 -0.0082916 0)
(0.0989599 -0.00665443 0)
(0.0994434 -0.00478944 0)
(0.100449 -0.00265286 0)
(0.101715 -0.000947051 0)
(0.10275 4.98054e-05 0)
(0.103449 0.000228923 0)
(0.103619 -0.000177723 0)
(0.103834 -0.000617373 0)
(0.103526 -0.00126953 0)
(0.104222 -0.00129769 0)
(0.103972 -0.00165833 0)
(0.105516 -0.0011999 0)
(0.140131 0.0406454 0)
(0.130936 0.0405461 0)
(0.121583 0.040857 0)
(0.105079 0.0394832 0)
(0.0967156 0.0386504 0)
(0.106086 0.0348604 0)
(0.115657 0.028543 0)
(0.125304 0.0161304 0)
(0.131842 0.0011145 0)
(0.135329 -0.0148828 0)
(0.135846 -0.0302397 0)
(0.135311 -0.0442246 0)
(0.136427 -0.0552689 0)
(0.137852 -0.0625827 0)
(0.13749 -0.0662096 0)
(0.133159 -0.0667312 0)
(0.125922 -0.0634381 0)
(0.117585 -0.0562193 0)
(0.108991 -0.0474951 0)
(0.102822 -0.0389388 0)
(0.0987903 -0.0319737 0)
(0.0964231 -0.0270178 0)
(0.0961322 -0.0230815 0)
(0.0977007 -0.019434 0)
(0.0999833 -0.0157911 0)
(0.101914 -0.0125091 0)
(0.10267 -0.0098985 0)
(0.102601 -0.00802894 0)
(0.10232 -0.00633985 0)