/*--------------------------------*- C++ -*----------------------------------*\
| =========                 |                                                 |
| \\      /  F ield         | OpenFOAM: The Open Source CFD Toolbox           |
|  \\    /   O peration     | Version:  2112                                  |
|   \\  /    A nd           | Website:  www.openfoam.com                      |
|    \\/     M anipulation  |                                                 |
\*---------------------------------------------------------------------------*/
FoamFile
{
    version     2.0;
    format      ascii;
    arch        "LSB;label=32;scalar=64";
    class       volScalarField;
    location    "0.15";
    object      nut;
}
// * * * * * * * * * * * * * * * * * * * * * * * * * * * * * * * * * * * * * //

dimensions      [0 2 -1 0 0 0 0];

internalField   nonuniform List<scalar> 
1880
(
3.51263e-11
5.38455e-12
1.91034e-13
3.46177e-14
2.62299e-14
8.15896e-14
2.81085e-14
2.06448e-14
9.54163e-14
9.17944e-14
3.85373e-14
2.99179e-13
6.03316e-13
4.27236e-13
2.66306e-13
1.30257e-13
1.53644e-13
3.22594e-13
5.60093e-13
1.04203e-12
1.23806e-12
1.7408e-12
1.93499e-12
2.25569e-12
1.25222e-11
2.95542e-12
3.15287e-10
2.46188e-11
5.90092e-09
3.90751e-09
4.91086e-09
6.36009e-09
7.9566e-10
2.42622e-10
2.42837e-10
9.26904e-12
9.8576e-12
1.28037e-11
4.29924e-11
1.73409e-11
1.14825e-13
1.35443e-11
9.15541e-11
4.36946e-11
8.01402e-11
7.30874e-12
3.0566e-11
2.40765e-11
2.93044e-11
8.17147e-11
9.26775e-11
1.18048e-10
2.22183e-10
5.64997e-10
6.46906e-10
4.23958e-09
4.15855e-09
1.43721e-08
2.31243e-08
6.50483e-08
2.02037e-09
1.27259e-09
1.3786e-09
5.90124e-10
3.11124e-09
3.64853e-09
7.7753e-09
2.30193e-09
4.11655e-09
4.0231e-09
3.30681e-09
4.07354e-11
2.96283e-09
5.28003e-10
1.42558e-10
7.86266e-10
4.84453e-11
3.44155e-09
6.93621e-10
5.19937e-09
4.43075e-09
4.76678e-09
1.32049e-08
7.06235e-09
1.97402e-08
1.9625e-08
1.90824e-08
4.0308e-08
2.99722e-08
5.48314e-08
1.11844e-12
4.9882e-10
2.01272e-09
3.42595e-10
6.03024e-09
3.88867e-10
4.77181e-09
1.42582e-09
4.13746e-09
7.8995e-10
1.79639e-09
3.46312e-10
3.12969e-09
4.36801e-10
2.12043e-09
3.09399e-09
3.75273e-09
4.63725e-09
3.25251e-09
6.33357e-09
4.82426e-09
9.14572e-09
9.81739e-09
1.45351e-08
1.6167e-08
2.02879e-08
2.08295e-08
2.57035e-08
2.86676e-08
4.54256e-08
9.46979e-11
1.66193e-10
3.3664e-09
4.23512e-10
4.24868e-09
6.28321e-10
5.50892e-09
7.51981e-10
2.96231e-09
1.64233e-09
4.03612e-09
1.70915e-10
6.69787e-10
7.15995e-09
3.69695e-10
2.21004e-09
1.71476e-09
3.38e-09
3.98633e-09
6.13536e-09
9.23974e-09
1.22464e-08
1.56462e-08
1.71162e-08
1.87376e-08
1.99586e-08
1.70874e-08
2.72468e-08
2.36395e-08
3.22476e-08
7.27103e-12
8.09723e-10
1.68692e-09
1.70596e-11
6.72126e-09
7.56542e-12
3.43134e-09
1.98256e-09
5.45892e-09
7.4754e-10
4.85517e-09
6.66938e-10
3.07707e-09
9.68077e-09
9.89099e-10
1.39109e-09
1.98555e-09
2.98064e-09
3.17793e-09
5.4723e-09
6.61452e-09
8.91377e-09
1.0138e-08
1.10065e-08
1.30081e-08
1.40243e-08
1.70688e-08
1.99006e-08
2.31276e-08
2.77807e-08
3.01149e-11
6.97284e-10
3.01709e-09
4.96109e-10
5.41198e-09
6.84056e-10
4.42874e-09
1.56661e-09
4.33772e-09
1.87745e-09
3.27623e-09
1.19975e-10
1.90237e-09
2.3904e-10
5.32174e-10
1.58743e-09
1.91261e-09
2.68527e-09
4.08331e-09
5.91089e-09
8.60653e-09
1.04835e-08
1.21241e-08
1.20933e-08
1.25601e-08
1.491e-08
1.29921e-08
2.07894e-08
1.89633e-08
2.36341e-08
3.11848e-11
1.11789e-09
2.82312e-09
4.21444e-10
6.46759e-09
5.7304e-10
4.36913e-09
2.39946e-09
5.53631e-09
1.50346e-09
2.69481e-09
6.19559e-10
3.13138e-09
6.31412e-10
1.24972e-09
1.67123e-09
2.4111e-09
2.68188e-09
3.77337e-09
5.07995e-09
6.75671e-09
7.75791e-09
8.82195e-09
9.0325e-09
1.07061e-08
1.20825e-08
1.41304e-08
1.64663e-08
1.99347e-08
2.10537e-08
5.0386e-11
1.41786e-09
3.01071e-09
7.34221e-10
6.41161e-09
1.07093e-09
5.39887e-09
2.41317e-09
5.24543e-09
2.28713e-09
3.5207e-09
1.27954e-09
3.31218e-09
1.4104e-09
1.91654e-09
2.07107e-09
2.80315e-09
2.79636e-09
4.0686e-09
4.96123e-09
6.74446e-09
7.5016e-09
8.26069e-09
8.85587e-09
9.37017e-09
1.23549e-08
1.21453e-08
1.62277e-08
1.67117e-08
1.87566e-08
9.69303e-11
1.75527e-09
3.06424e-09
9.8285e-10
6.59104e-09
1.36245e-09
6.00183e-09
2.67381e-09
5.42322e-09
2.44919e-09
3.72684e-09
1.81495e-09
3.68642e-09
1.96268e-09
2.39524e-09
2.44913e-09
3.17366e-09
3.02749e-09
4.071e-09
4.63568e-09
5.96482e-09
6.64339e-09
7.29733e-09
8.22636e-09
9.24992e-09
1.08048e-08
1.23014e-08
1.39068e-08
1.69344e-08
1.73387e-08
1.85444e-10
2.05855e-09
3.0957e-09
1.13569e-09
6.81057e-09
1.51885e-09
6.28558e-09
2.9479e-09
5.67303e-09
2.39228e-09
3.68226e-09
2.24942e-09
4.06684e-09
2.40175e-09
2.7823e-09
2.77792e-09
3.49139e-09
3.29302e-09
4.18081e-09
4.56594e-09
5.60912e-09
6.31356e-09
6.70212e-09
8.07191e-09
8.72964e-09
1.06737e-08
1.13235e-08
1.32346e-08
1.46721e-08
1.59771e-08
8.83609e-11
2.14928e-09
3.34502e-09
1.29932e-09
6.58294e-09
1.83583e-09
6.90704e-09
2.82647e-09
5.19358e-09
2.80144e-09
4.28915e-09
2.58522e-09
4.03229e-09
2.8516e-09
3.13947e-09
3.15511e-09
3.70144e-09
3.53298e-09
4.24569e-09
4.52606e-09
5.32059e-09
6.06541e-09
6.41943e-09
7.72361e-09
8.4885e-09
9.6622e-09
1.09786e-08
1.2136e-08
1.40087e-08
1.49557e-08
2.03705e-10
2.12523e-09
3.41822e-09
1.12221e-09
6.93823e-09
1.72436e-09
6.60995e-09
3.08465e-09
5.56913e-09
2.3932e-09
3.72893e-09
2.84694e-09
4.54316e-09
3.13807e-09
3.36005e-09
3.34058e-09
3.94023e-09
3.75094e-09
4.29039e-09
4.55781e-09
5.11378e-09
5.91423e-09
6.17464e-09
7.52047e-09
8.17752e-09
9.32028e-09
1.03332e-08
1.15482e-08
1.27601e-08
1.40632e-08
1.33107e-10
1.50715e-09
3.86036e-09
1.35433e-09
6.0303e-09
2.04835e-09
7.24749e-09
2.86635e-09
5.0125e-09
2.67663e-09
4.17045e-09
3.04943e-09
4.32482e-09
3.50447e-09
3.69653e-09
3.68385e-09
3.93922e-09
3.84688e-09
4.26154e-09
4.51342e-09
4.96164e-09
5.74709e-09
6.02012e-09
7.211e-09
7.89862e-09
8.78521e-09
9.88827e-09
1.09399e-08
1.20174e-08
1.32772e-08
1.78502e-11
1.53492e-09
2.10752e-09
6.51e-10
7.29791e-09
1.36458e-09
5.54363e-09
3.2128e-09
5.65472e-09
1.93421e-09
3.11859e-09
3.03536e-09
4.57898e-09
3.60485e-09
3.71381e-09
3.70586e-09
4.12283e-09
3.93409e-09
4.22865e-09
4.47834e-09
4.82373e-09
5.59768e-09
5.87832e-09
6.95629e-09
7.62309e-09
8.46375e-09
9.42991e-09
1.04851e-08
1.13374e-08
1.26096e-08
1.65407e-10
6.31555e-10
3.87191e-09
1.30023e-09
5.20895e-09
2.03568e-09
7.43009e-09
2.65397e-09
4.30115e-09
2.58198e-09
4.07262e-09
3.15675e-09
4.33892e-09
3.87216e-09
3.95603e-09
3.84043e-09
3.8046e-09
3.73678e-09
3.9521e-09
4.26445e-09
4.59822e-09
5.36913e-09
5.70476e-09
6.68242e-09
7.36035e-09
8.14996e-09
9.06003e-09
1.00715e-08
1.08467e-08
1.20196e-08
2.19998e-12
6.58627e-10
1.18537e-10
4.70399e-10
6.57664e-09
5.11445e-10
3.18831e-09
2.86518e-09
4.98332e-09
1.26945e-09
2.0661e-09
3.17392e-09
4.85334e-09
3.77652e-09
3.70995e-09
3.56048e-09
3.71648e-09
3.48547e-09
3.66578e-09
4.00345e-09
4.3528e-09
5.11717e-09
5.5296e-09
6.41541e-09
7.10385e-09
7.9088e-09
8.72406e-09
9.7287e-09
1.04476e-08
1.15545e-08
2.29021e-09
1.79288e-09
2.02731e-09
1.49978e-09
4.11738e-09
4.24843e-09
9.02808e-09
3.42092e-09
4.84617e-09
4.34488e-09
4.14636e-09
4.69939e-10
5.02978e-11
9.02221e-09
2.43617e-08
1.81808e-08
7.52249e-09
1.03858e-09
1.76141e-10
3.47244e-11
7.56984e-11
9.93474e-10
1.29556e-09
2.81017e-09
3.3947e-09
5.24765e-09
5.67783e-09
7.63441e-09
8.24044e-09
9.93347e-09
4.98069e-09
6.10571e-09
6.65528e-10
1.9878e-10
2.00784e-10
1.82976e-12
1.80819e-11
1.52609e-11
2.80712e-11
3.0833e-12
2.62425e-12
7.02507e-11
1.87007e-10
2.07891e-10
1.63774e-10
8.48138e-11
3.38346e-11
1.1757e-11
5.80359e-12
2.14665e-12
2.28628e-12
1.186e-12
1.15626e-12
1.21196e-12
7.90854e-13
3.36443e-13
4.77824e-13
2.05493e-14
1.24193e-14
7.13708e-14
3.44308e-11
5.22868e-12
1.72815e-13
2.77182e-14
1.72383e-14
7.15152e-14
3.3302e-14
1.60219e-14
5.21844e-14
4.44579e-14
7.46648e-14
4.85572e-13
7.82209e-13
6.47872e-13
4.12348e-13
1.82286e-13
5.85017e-14
1.62794e-14
5.42508e-15
2.8653e-15
1.99427e-15
1.7625e-15
1.47909e-15
1.96911e-15
9.18922e-16
1.58202e-15
8.69775e-16
7.23389e-16
1.98733e-16
4.34992e-17
1.31573e-09
1.33396e-08
7.32809e-10
4.8405e-09
2.22134e-09
1.70758e-09
3.68895e-09
7.79496e-10
4.5888e-10
2.5583e-09
2.21481e-08
6.54479e-08
5.27582e-08
8.58305e-07
9.30316e-08
3.39283e-10
6.63356e-07
1.00042e-06
1.6952e-07
3.29663e-08
7.93832e-08
3.34521e-08
7.26138e-08
2.80529e-08
1.46623e-10
3.31809e-08
1.32862e-07
1.05557e-06
3.10212e-08
1.80302e-09
4.84422e-08
4.06189e-08
4.52103e-08
4.97085e-08
5.50064e-09
5.96693e-08
9.76233e-08
2.41305e-08
1.71519e-08
7.74248e-08
4.70937e-08
3.4135e-08
4.02984e-08
3.59222e-08
2.60309e-08
5.85662e-08
6.84383e-08
2.45599e-08
3.20003e-08
6.61282e-08
3.97918e-08
3.28455e-08
3.25346e-08
3.88822e-08
2.75442e-08
3.79741e-08
5.72331e-08
4.36968e-08
1.47576e-08
5.18617e-08
3.53397e-08
2.63671e-08
2.98807e-08
3.16548e-08
3.02838e-08
3.61932e-08
4.05119e-08
3.41752e-08
3.54551e-08
4.48766e-08
3.24347e-08
2.62182e-08
2.7794e-08
2.93983e-08
2.68193e-08
3.26018e-08
3.82938e-08
3.40475e-08
2.37316e-08
3.61411e-08
2.67492e-08
2.20189e-08
2.44183e-08
2.70239e-08
2.65362e-08
2.78999e-08
3.07838e-08
2.97542e-08
2.80802e-08
2.89283e-08
2.38078e-08
2.09626e-08
2.34109e-08
2.39627e-08
2.39944e-08
2.71549e-08
2.75569e-08
2.5863e-08
2.29022e-08
2.53666e-08
2.01271e-08
1.88967e-08
2.07239e-08
2.23787e-08
2.28155e-08
2.31285e-08
2.38731e-08
2.33239e-08
2.18234e-08
2.13714e-08
1.78707e-08
1.75268e-08
1.96831e-08
2.03994e-08
2.07892e-08
2.19441e-08
2.12005e-08
2.03863e-08
1.91208e-08
1.86139e-08
1.59883e-08
1.62839e-08
1.78375e-08
1.89103e-08
1.93879e-08
1.94522e-08
1.90096e-08
1.8345e-08
1.74254e-08
1.63178e-08
1.46607e-08
1.51293e-08
1.67004e-08
1.75287e-08
1.77662e-08
1.8012e-08
1.71768e-08
1.6378e-08
1.55077e-08
1.43114e-08
1.3596e-08
1.42609e-08
1.54463e-08
1.62526e-08
1.65046e-08
1.64102e-08
1.5698e-08
1.48824e-08
1.40457e-08
1.27451e-08
1.28607e-08
1.34593e-08
1.45156e-08
1.51628e-08
1.53001e-08
1.51986e-08
1.44858e-08
1.36225e-08
1.2709e-08
1.14221e-08
1.22455e-08
1.28308e-08
1.36811e-08
1.42059e-08
1.43179e-08
1.41858e-08
1.35623e-08
1.26931e-08
1.17927e-08
1.04703e-08
1.05465e-08
1.01919e-08
1.11389e-08
1.0574e-08
1.09508e-08
9.5749e-09
9.22297e-09
6.94782e-09
6.20699e-09
3.88156e-09
4.44346e-13
2.21278e-12
5.4324e-12
1.58639e-11
2.47628e-11
3.98665e-11
4.39689e-11
4.85936e-11
4.33211e-11
3.60451e-11
9.81828e-16
2.83558e-15
6.5829e-15
1.14478e-14
2.16377e-14
3.45163e-14
4.14865e-14
6.26098e-14
5.54145e-14
3.63012e-14
5.20887e-08
3.6035e-08
6.48011e-09
2.30789e-09
1.6029e-09
8.56406e-10
9.13713e-10
1.46552e-09
6.24059e-09
2.73074e-08
1.10714e-07
9.0106e-08
1.25298e-08
1.38388e-09
1.86617e-10
2.8351e-11
4.20683e-12
5.12182e-13
3.86024e-14
7.07196e-16
4.66463e-17
6.90922e-16
1.12438e-15
1.01509e-15
6.82325e-16
4.01014e-16
2.23333e-16
1.20324e-16
6.62685e-17
3.63337e-17
2.0714e-17
1.21008e-17
7.26978e-18
4.58929e-18
3.08341e-18
1.99562e-18
1.69129e-18
1.00224e-18
1.27676e-18
5.3079e-19
4.46299e-08
5.21035e-08
2.00646e-07
1.64988e-07
1.04607e-07
8.90717e-09
4.49307e-08
1.07883e-07
1.50318e-07
1.62363e-07
1.59817e-07
1.40594e-07
1.15211e-07
8.67739e-08
5.87487e-08
3.36204e-08
1.51257e-08
5.18486e-09
1.40739e-09
3.25217e-10
6.77027e-11
1.3065e-11
2.36626e-12
4.04875e-13
6.7924e-14
1.07187e-14
1.78285e-15
2.29032e-16
3.67153e-17
2.33757e-18
6.83526e-20
2.47648e-20
1.76179e-18
1.59e-18
6.24123e-18
4.17468e-18
1.62261e-17
7.52864e-18
3.08782e-17
1.42702e-17
7.93283e-08
6.55114e-08
1.41855e-07
6.32928e-08
9.01976e-07
1.62408e-06
2.45298e-07
2.45946e-09
4.86323e-08
1.00224e-07
1.33956e-07
1.37659e-07
1.19745e-07
9.45928e-08
7.20695e-08
5.46782e-08
4.18686e-08
3.23512e-08
2.49502e-08
1.87612e-08
1.32035e-08
8.21992e-09
4.30501e-09
1.86661e-09
7.00075e-10
2.38396e-10
8.16826e-11
2.71106e-11
1.01287e-11
3.61805e-12
1.45041e-12
5.86667e-13
2.34554e-13
9.64149e-14
3.77786e-14
1.46413e-14
3.13419e-15
1.41643e-15
8.65562e-18
7.5974e-17
1.60145e-07
3.63158e-08
2.11188e-08
1.06057e-07
2.82124e-06
2.7038e-06
9.01524e-07
3.09076e-08
2.79749e-10
1.31048e-08
4.41896e-08
8.40124e-08
1.02457e-07
9.3571e-08
7.34931e-08
5.47885e-08
4.08336e-08
3.08851e-08
2.36954e-08
1.83346e-08
1.42478e-08
1.11164e-08
8.72491e-09
6.88984e-09
5.47372e-09
4.34067e-09
3.44295e-09
2.66652e-09
2.0537e-09
1.49356e-09
1.07174e-09
7.07144e-10
4.60598e-10
2.63579e-10
1.60909e-10
7.94539e-11
4.35853e-11
1.95575e-11
9.17482e-12
3.70621e-12
2.91343e-07
1.04131e-08
2.28349e-08
5.41591e-07
3.21704e-06
2.4383e-06
1.06892e-06
1.46853e-07
1.68548e-10
5.46036e-09
1.70371e-08
3.88488e-08
5.9519e-08
6.62361e-08
6.30522e-08
5.24607e-08
3.94643e-08
2.92811e-08
2.21459e-08
1.69847e-08
1.31576e-08
1.02877e-08
8.11874e-09
6.46093e-09
5.19108e-09
4.19404e-09
3.42721e-09
2.7975e-09
2.32218e-09
1.90643e-09
1.60315e-09
1.32162e-09
1.12598e-09
9.26286e-10
8.06726e-10
6.60673e-10
5.86855e-10
4.84738e-10
4.41485e-10
3.75384e-10
4.85151e-09
1.3202e-07
1.74895e-08
2.52648e-06
3.84011e-06
2.92767e-06
1.17319e-06
2.43532e-07
3.1106e-09
1.48257e-08
4.2155e-08
6.97757e-08
8.25376e-08
6.46563e-08
4.40647e-08
3.57396e-08
3.38553e-08
2.88879e-08
2.19674e-08
1.65129e-08
1.26509e-08
9.84497e-09
7.76355e-09
6.19404e-09
5.00022e-09
4.06047e-09
3.33353e-09
2.73019e-09
2.27076e-09
1.86655e-09
1.56909e-09
1.29205e-09
1.10015e-09
9.02275e-10
7.86673e-10
6.41005e-10
5.75995e-10
4.70862e-10
4.42687e-10
3.70019e-10
1.35333e-07
3.45597e-07
1.87849e-07
4.18977e-07
3.16249e-06
2.4678e-06
1.05223e-06
4.07672e-07
6.29926e-09
3.45797e-08
6.48159e-08
4.99729e-08
1.49236e-08
1.22281e-08
3.09459e-08
3.43111e-08
2.06203e-08
1.97482e-08
1.99312e-08
1.67462e-08
1.28225e-08
9.76569e-09
7.59174e-09
6.01664e-09
4.8495e-09
3.94478e-09
3.25072e-09
2.67195e-09
2.22876e-09
1.83613e-09
1.54366e-09
1.27173e-09
1.08054e-09
8.83767e-10
7.67071e-10
6.21002e-10
5.53486e-10
4.46777e-10
4.16566e-10
3.41505e-10
4.40764e-08
1.27352e-07
4.87602e-08
6.34088e-07
3.52478e-06
2.93767e-06
1.04224e-06
4.17777e-10
2.42129e-08
6.68479e-08
3.25178e-08
3.43375e-08
2.13099e-09
8.60689e-07
6.9819e-07
4.37716e-07
1.54846e-07
1.56133e-08
1.49951e-08
1.41334e-08
1.23413e-08
9.9075e-09
7.71224e-09
6.04194e-09
4.83847e-09
3.94072e-09
3.26932e-09
2.70832e-09
2.27481e-09
1.88468e-09
1.58808e-09
1.31151e-09
1.11256e-09
9.08081e-10
7.84171e-10
6.30576e-10
5.55822e-10
4.42207e-10
4.06276e-10
3.25088e-10
6.80228e-07
6.2775e-09
7.52931e-11
8.54153e-07
2.88698e-06
2.51204e-06
2.07e-07
4.84436e-08
8.31433e-08
6.75009e-08
9.85472e-08
5.3153e-08
8.04458e-08
4.11596e-08
1.95429e-07
4.53631e-09
1.22715e-09
6.75223e-09
7.04652e-08
1.60016e-09
9.01631e-09
8.84417e-09
7.61084e-09
6.27322e-09
5.08429e-09
4.09635e-09
3.3413e-09
2.72803e-09
2.26968e-09
1.87051e-09
1.5689e-09
1.29327e-09
1.09267e-09
8.88524e-10
7.62518e-10
6.08206e-10
5.29009e-10
4.13327e-10
3.72184e-10
2.87539e-10
2.67299e-09
8.71254e-08
6.35405e-08
6.32441e-09
5.51981e-08
1.08848e-08
5.28756e-08
1.14455e-07
2.58312e-08
4.27837e-08
1.07087e-07
6.93499e-08
4.43393e-08
9.68222e-10
7.37687e-10
1.46318e-08
4.88422e-08
3.35547e-08
7.23814e-09
5.08922e-10
9.16408e-11
6.05544e-10
2.67581e-09
3.78234e-09
3.68529e-09
3.29843e-09
2.89944e-09
2.4925e-09
2.14347e-09
1.80173e-09
1.52578e-09
1.2655e-09
1.0693e-09
8.68348e-10
7.41287e-10
5.86696e-10
5.03042e-10
3.84994e-10
3.37887e-10
2.48002e-10
2.90525e-08
4.37074e-08
9.79824e-08
1.18853e-07
1.29342e-07
1.21763e-07
1.21238e-07
8.98648e-08
7.25848e-08
9.70461e-09
6.81377e-08
3.39705e-08
2.17484e-08
4.24651e-08
1.83935e-08
9.60167e-09
8.57958e-09
1.15516e-08
1.76982e-08
2.13326e-08
1.92273e-08
1.44788e-08
1.0371e-08
7.49007e-09
5.53713e-09
4.19619e-09
3.30099e-09
2.65055e-09
2.1944e-09
1.81046e-09
1.51769e-09
1.25314e-09
1.05391e-09
8.52562e-10
7.23419e-10
5.67977e-10
4.79951e-10
3.59242e-10
3.05762e-10
2.07299e-10
7.02061e-08
4.75897e-08
6.67759e-08
8.97069e-08
9.14083e-08
7.79772e-08
9.33085e-08
5.25379e-08
8.28714e-08
2.02287e-08
1.88763e-08
1.04413e-09
1.21906e-08
8.23856e-09
5.09429e-07
5.69601e-07
4.6783e-07
5.40103e-08
2.02516e-09
1.26026e-08
1.31505e-08
1.04308e-08
7.99904e-09
6.11947e-09
4.69752e-09
3.68809e-09
3.00956e-09
2.49366e-09
2.11055e-09
1.76479e-09
1.48838e-09
1.23382e-09
1.03733e-09
8.38217e-10
7.08326e-10
5.52697e-10
4.61217e-10
3.38139e-10
2.78625e-10
1.63528e-10
6.6662e-08
4.62569e-08
3.88757e-08
6.61972e-08
7.63845e-08
7.09973e-08
4.20808e-08
5.91004e-08
8.58269e-08
4.69447e-08
2.01451e-09
3.09198e-07
7.9613e-08
5.51631e-08
2.20398e-08
2.60729e-08
6.59292e-10
1.64868e-10
1.66019e-09
5.26914e-09
8.94811e-09
1.00676e-08
8.67403e-09
6.59871e-09
4.93156e-09
3.7794e-09
3.02849e-09
2.48364e-09
2.09288e-09
1.74771e-09
1.47345e-09
1.22164e-09
1.02619e-09
8.28217e-10
6.97943e-10
5.42319e-10
4.48622e-10
3.23911e-10
2.59819e-10
1.16988e-10
4.93409e-08
4.17694e-08
4.34953e-08
4.96245e-08
4.46426e-08
4.43844e-08
5.48691e-08
2.44071e-08
1.32553e-08
1.94711e-08
4.73296e-08
6.06007e-09
5.59452e-09
3.34921e-08
1.05532e-08
1.36062e-09
1.66585e-08
3.24655e-08
3.37307e-08
2.71333e-08
1.99179e-08
1.4444e-08
1.05621e-08
7.71079e-09
5.62409e-09
4.15965e-09
3.21156e-09
2.55993e-09
2.11935e-09
1.75332e-09
1.47057e-09
1.21669e-09
1.02045e-09
8.23026e-10
6.92754e-10
5.37526e-10
4.4323e-10
3.18172e-10
2.5232e-10
9.38544e-11
3.96267e-08
3.52275e-08
3.11752e-08
4.45262e-08
4.47047e-08
3.01627e-08
4.49862e-08
3.52475e-08
3.62728e-08
3.34824e-11
3.54335e-08
1.04941e-08
6.70986e-09
9.68453e-09
3.3195e-07
4.49026e-07
2.38791e-07
4.52511e-08
1.79231e-08
1.8185e-08
1.72812e-08
1.35999e-08
9.44394e-09
6.48369e-09
4.62563e-09
3.51758e-09
2.8629e-09
2.39229e-09
2.04221e-09
1.7172e-09
1.45303e-09
1.20745e-09
1.01577e-09
8.2087e-10
6.92256e-10
5.38276e-10
4.45333e-10
3.21489e-10
2.57438e-10
1.12922e-10
3.33826e-08
3.25093e-08
3.19923e-08
3.18146e-08
3.14279e-08
3.76257e-08
3.20009e-08
2.777e-08
4.28885e-08
3.00889e-08
1.2872e-08
9.19305e-09
3.27843e-08
3.35691e-08
1.09025e-08
5.09582e-09
1.44311e-08
2.49178e-08
2.52562e-08
2.14896e-08
1.71013e-08
1.31547e-08
9.88039e-09
7.27884e-09
5.34908e-09
4.00364e-09
3.13526e-09
2.52291e-09
2.09895e-09
1.73927e-09
1.4619e-09
1.21092e-09
1.01876e-09
8.24327e-10
6.97296e-10
5.44703e-10
4.54666e-10
3.33263e-10
2.73896e-10
1.57951e-10
2.56787e-08
2.46241e-08
2.35412e-08
2.9443e-08
2.85222e-08
2.44262e-08
3.06995e-08
3.24488e-08
2.16044e-08
2.44405e-08
3.39141e-08
3.28057e-08
2.62133e-08
5.67691e-09
1.12361e-08
2.56563e-08
2.90811e-08
2.63851e-08
2.17231e-08
1.72374e-08
1.34694e-08
1.02492e-08
7.55027e-09
5.52655e-09
4.20064e-09
3.37069e-09
2.83286e-09
2.39289e-09
2.04517e-09
1.71721e-09
1.4548e-09
1.20962e-09
1.02222e-09
8.30265e-10
7.06244e-10
5.55703e-10
4.69957e-10
3.51781e-10
2.98636e-10
2.01168e-10
2.35107e-08
2.32166e-08
2.16217e-08
2.19398e-08
2.21324e-08
2.34135e-08
2.15886e-08
2.13749e-08
2.65013e-08
2.48911e-08
1.52669e-08
1.91079e-08
2.68637e-08
2.59487e-08
2.12646e-08
1.82666e-08
1.79877e-08
1.76449e-08
1.63055e-08
1.44123e-08
1.21434e-08
9.78428e-09
7.62247e-09
5.8455e-09
4.53859e-09
3.61054e-09
2.96914e-09
2.45824e-09
2.07512e-09
1.73058e-09
1.46397e-09
1.21627e-09
1.03079e-09
8.40061e-10
7.19054e-10
5.70523e-10
4.89771e-10
3.74952e-10
3.28367e-10
2.40353e-10
1.85906e-08
1.7634e-08
1.68844e-08
1.88337e-08
1.90123e-08
1.82356e-08
2.00086e-08
2.04392e-08
1.84068e-08
1.95347e-08
2.14535e-08
2.02997e-08
1.87115e-08
1.60641e-08
1.44842e-08
1.76432e-08
1.90214e-08
1.78211e-08
1.54832e-08
1.28062e-08
1.02284e-08
7.98979e-09
6.21632e-09
4.92821e-09
4.04035e-09
3.38137e-09
2.87315e-09
2.42137e-09
2.06253e-09
1.72766e-09
1.46786e-09
1.22198e-09
1.04046e-09
8.51653e-10
7.34191e-10
5.87776e-10
5.12319e-10
4.00625e-10
3.60237e-10
2.77837e-10
1.67627e-08
1.60618e-08
1.49499e-08
1.4874e-08
1.51507e-08
1.54111e-08
1.53076e-08
1.57309e-08
1.72203e-08
1.79934e-08
1.6167e-08
1.51984e-08
1.74913e-08
1.82423e-08
1.66498e-08
1.43821e-08
1.30629e-08
1.21009e-08
1.10763e-08
9.86286e-09
8.4935e-09
7.11478e-09
5.8849e-09
4.8724e-09
4.07618e-09
3.42124e-09
2.8984e-09
2.43538e-09
2.072e-09
1.73453e-09
1.47676e-09
1.23047e-09
1.05216e-09
8.64802e-10
7.50812e-10
6.06285e-10
5.3597e-10
4.26926e-10
3.92016e-10
3.13234e-10
1.3802e-08
1.28724e-08
1.19315e-08
1.22257e-08
1.26688e-08
1.25972e-08
1.34033e-08
1.40557e-08
1.42968e-08
1.48554e-08
1.58926e-08
1.57755e-08
1.49542e-08
1.45168e-08
1.38756e-08
1.32847e-08
1.30546e-08
1.23886e-08
1.11404e-08
9.62787e-09
8.11265e-09
6.76355e-09
5.6526e-09
4.75305e-09
4.02317e-09
3.40101e-09
2.89165e-09
2.43538e-09
2.07572e-09
1.7395e-09
1.48524e-09
1.23915e-09
1.06419e-09
8.78214e-10
7.67608e-10
6.24698e-10
5.59131e-10
4.52182e-10
4.21967e-10
3.45513e-10
1.20637e-08
1.12157e-08
1.01394e-08
9.74593e-09
9.95157e-09
1.01915e-08
1.06528e-08
1.13835e-08
1.23724e-08
1.32602e-08
1.35266e-08
1.35225e-08
1.37652e-08
1.40401e-08
1.38744e-08
1.31288e-08
1.19703e-08
1.07554e-08
9.58138e-09
8.44521e-09
7.36796e-09
6.3737e-09
5.4798e-09
4.68448e-09
3.99678e-09
3.39112e-09
2.88804e-09
2.43518e-09
2.07802e-09
1.74251e-09
1.49156e-09
1.24557e-09
1.07395e-09
8.89197e-10
7.82011e-10
6.4027e-10
5.79507e-10
4.73709e-10
4.48358e-10
3.72694e-10
1.0363e-08
9.34058e-09
8.30902e-09
7.87961e-09
8.05396e-09
8.30295e-09
9.03682e-09
9.99608e-09
1.09227e-08
1.1801e-08
1.24982e-08
1.30815e-08
1.33063e-08
1.31919e-08
1.28102e-08
1.21747e-08
1.13653e-08
1.04331e-08
9.40054e-09
8.31916e-09
7.25822e-09
6.26963e-09
5.38158e-09
4.59576e-09
3.91704e-09
3.32188e-09
2.8253e-09
2.38017e-09
2.02814e-09
1.69606e-09
1.45178e-09
1.20566e-09
1.04083e-09
8.5593e-10
7.5588e-10
6.10562e-10
5.63332e-10
4.49243e-10
4.42477e-10
3.55e-10
9.30924e-09
8.24439e-09
7.14176e-09
6.52423e-09
6.575e-09
6.86367e-09
7.42218e-09
8.15357e-09
8.91114e-09
9.57875e-09
1.00221e-08
1.03338e-08
1.05368e-08
1.0542e-08
1.02673e-08
9.71348e-09
8.94145e-09
8.02294e-09
7.03843e-09
6.05612e-09
5.12199e-09
4.2611e-09
3.48352e-09
2.7932e-09
2.18878e-09
1.66662e-09
1.22834e-09
8.57948e-10
5.80301e-10
3.4651e-10
2.12421e-10
9.91178e-11
5.56788e-11
2.00269e-11
1.22702e-11
3.40612e-12
4.17678e-12
1.25921e-12
3.30319e-12
1.62523e-12
3.05397e-09
2.27864e-09
1.67349e-09
1.4028e-09
1.3313e-09
1.20751e-09
1.0523e-09
8.78001e-10
6.24759e-10
3.68075e-10
1.95049e-10
1.12906e-10
7.99495e-11
6.14724e-11
4.42129e-11
2.78907e-11
1.49888e-11
6.51994e-12
2.12975e-12
4.60689e-13
4.82838e-14
4.78336e-15
2.79949e-14
8.85322e-14
1.62673e-13
1.9702e-13
2.2414e-13
1.90062e-13
1.67137e-13
1.25137e-13
8.10355e-14
6.13966e-14
3.00852e-14
1.91092e-14
7.50846e-15
4.04582e-15
3.81909e-16
3.47673e-16
3.99313e-17
1.62012e-16
2.94928e-11
2.26021e-11
1.74488e-11
1.53807e-11
1.50586e-11
1.23557e-11
8.19997e-12
4.57548e-12
1.43159e-12
7.29413e-14
5.13899e-14
5.85714e-13
1.34135e-12
1.89643e-12
2.05201e-12
1.7783e-12
1.30527e-12
8.59914e-13
5.23026e-13
2.95253e-13
1.55773e-13
7.76821e-14
3.72642e-14
1.71118e-14
7.83079e-15
3.29895e-15
1.49518e-15
5.43141e-16
2.51041e-16
8.15419e-17
2.68514e-17
9.88185e-18
1.12367e-18
3.3462e-19
6.00543e-19
6.30636e-19
7.04801e-18
3.74746e-18
2.4733e-17
1.29418e-17
2.95112e-14
1.87662e-14
1.42492e-14
1.24819e-14
1.23902e-14
8.22121e-15
3.31534e-15
5.14784e-16
9.0709e-17
7.38535e-15
2.86051e-14
4.40706e-14
4.46396e-14
3.61523e-14
2.37293e-14
1.23672e-14
5.2275e-15
1.84497e-15
5.33001e-16
1.14182e-16
1.41852e-17
4.01513e-19
2.01763e-19
1.97296e-18
4.69151e-18
6.68823e-18
7.86058e-18
7.77272e-18
6.80161e-18
5.68029e-18
4.36214e-18
3.44892e-18
2.68041e-18
1.97192e-18
1.69302e-18
1.23379e-18
1.24529e-18
8.39933e-19
1.15473e-18
5.24678e-19
)
;

boundaryField
{
    inlet
    {
        type            calculated;
        value           nonuniform List<scalar> 
20
(
1.58607e-34
6.44917e-33
9.62461e-33
2.69016e-33
4.48078e-33
3.71322e-33
4.1151e-33
4.14172e-33
4.13118e-33
4.00076e-33
3.79879e-33
3.6625e-33
3.79037e-33
4.12172e-33
4.3792e-33
5.08125e-33
3.41109e-33
1.01246e-32
6.71362e-33
1.58599e-34
)
;
    }
    outlet
    {
        type            calculated;
        value           nonuniform List<scalar> 
27
(
1.6498e-33
1.39964e-33
1.06734e-33
5.30823e-34
1.02355e-34
7.13075e-36
9.20195e-40
4.58827e-36
7.6104e-35
4.33813e-34
9.75646e-34
1.32373e-33
1.57172e-33
1.77652e-33
1.94869e-33
2.08073e-33
4.81198e-34
4.31361e-36
3.32946e-38
5.45504e-41
3.21613e-41
2.69499e-38
3.43276e-36
3.82983e-34
2.14605e-33
2.02426e-33
1.85505e-33
)
;
    }
    lowerWall
    {
        type            fixedValue;
        value           uniform 0;
    }
    upperWall
    {
        type            fixedValue;
        value           uniform 0;
    }
    defaultFaces
    {
        type            empty;
    }
}


// ************************************************************************* //
