/*--------------------------------*- C++ -*----------------------------------*\
| =========                 |                                                 |
| \\      /  F ield         | OpenFOAM: The Open Source CFD Toolbox           |
|  \\    /   O peration     | Version:  2112                                  |
|   \\  /    A nd           | Website:  www.openfoam.com                      |
|    \\/     M anipulation  |                                                 |
\*---------------------------------------------------------------------------*/
FoamFile
{
    version     2.0;
    format      ascii;
    arch        "LSB;label=32;scalar=64";
    class       volScalarField;
    location    "0.15";
    object      p;
}
// * * * * * * * * * * * * * * * * * * * * * * * * * * * * * * * * * * * * * //

dimensions      [0 2 -2 0 0 0 0];

internalField   nonuniform List<scalar> 
1880
(
0.00369976
0.00355964
0.00346712
0.00342094
0.00338946
0.00336652
0.00335152
0.00332973
0.00330357
0.00328769
0.00327786
0.00326443
0.00324904
0.00324385
0.00324693
0.00326162
0.00327695
0.00330634
0.00333509
0.00338182
0.00343004
0.00349864
0.0035772
0.00368003
0.00380115
0.00396041
0.00414394
0.00439555
0.00465555
0.00507038
0.00351848
0.00348285
0.00344307
0.00340841
0.00337258
0.00334941
0.00334095
0.00332373
0.00329585
0.00327854
0.00327088
0.00325961
0.00324351
0.00323834
0.00324193
0.00325694
0.00327077
0.00329767
0.00332484
0.0033671
0.00341366
0.00347364
0.00355063
0.00363547
0.00375718
0.00387906
0.00405177
0.00423487
0.00440809
0.0046615
0.00348537
0.00346168
0.00343228
0.00340273
0.00336716
0.00334295
0.00333593
0.0033198
0.00329092
0.00327348
0.00326879
0.00326044
0.00324581
0.00323891
0.00324152
0.00325147
0.00326305
0.00328163
0.00330639
0.00333856
0.00338116
0.00342865
0.00349364
0.00356313
0.00365331
0.00375279
0.00386496
0.00398264
0.00408966
0.00416269
0.00342763
0.00341403
0.00339787
0.00338056
0.0033505
0.00332672
0.00332114
0.00330793
0.0032805
0.00326313
0.00325884
0.00325127
0.00323628
0.00322805
0.00322878
0.00323601
0.0032442
0.0032575
0.00327723
0.00330158
0.00333574
0.00337139
0.00342181
0.00347086
0.00353768
0.00360011
0.00367095
0.00373701
0.00376326
0.00378266
0.00339915
0.00338972
0.00337912
0.00336752
0.00334051
0.00331723
0.00331202
0.00329967
0.00327258
0.00325494
0.0032506
0.003243
0.0032274
0.00321705
0.00321533
0.00321822
0.00322276
0.00322887
0.00324332
0.00325708
0.00328312
0.00330387
0.00334012
0.00336911
0.00341061
0.00344282
0.00347504
0.00349042
0.00347836
0.00344148
0.00337233
0.00336438
0.00335654
0.0033487
0.00332497
0.00330334
0.0032988
0.00328714
0.00326063
0.00324306
0.00323825
0.00322994
0.003213
0.00320058
0.00319591
0.00319509
0.00319498
0.00319524
0.00320241
0.00320803
0.0032224
0.00323266
0.00325015
0.00326467
0.00327861
0.00328769
0.00328433
0.00326595
0.00321991
0.00314321
0.00335228
0.00334557
0.00333971
0.0033343
0.00331272
0.00329226
0.00328806
0.00327645
0.00324988
0.00323186
0.00322615
0.00321657
0.00319792
0.00318298
0.00317511
0.00317002
0.00316512
0.00315882
0.00315908
0.00315526
0.00315996
0.00315722
0.00316048
0.0031577
0.00315046
0.00313704
0.00310699
0.00306058
0.00298934
0.00288925
0.00333636
0.00333021
0.00332529
0.003321
0.00330052
0.00328075
0.00327667
0.00326483
0.00323787
0.00321917
0.00321233
0.00320122
0.00318054
0.00316295
0.00315169
0.00314248
0.00313252
0.00312039
0.00311311
0.00310164
0.00309533
0.00308285
0.00307044
0.00305444
0.00302761
0.00299481
0.00294569
0.00287523
0.00278858
0.00266772
0.00332412
0.00331821
0.00331373
0.00331
0.00329004
0.00327052
0.00326628
0.00325397
0.00322631
0.00320662
0.00319841
0.0031855
0.00316259
0.00314215
0.00312743
0.00311406
0.00309915
0.00308122
0.00306699
0.00304777
0.00303201
0.00300941
0.00298434
0.00295545
0.00291267
0.00286473
0.00279873
0.00271256
0.00261079
0.00247864
0.0033153
0.00330944
0.00330502
0.00330133
0.00328134
0.00326159
0.00325682
0.00324372
0.00321504
0.00319405
0.00318425
0.00316935
0.00314408
0.00312073
0.00310258
0.00308522
0.00306547
0.00304228
0.0030213
0.00299532
0.00297055
0.00293924
0.00290298
0.0028625
0.00280786
0.00274583
0.00266867
0.00256895
0.00245732
0.0023172
0.00330986
0.00330386
0.00329918
0.00329509
0.00327455
0.00325409
0.00324844
0.00323427
0.00320433
0.00318179
0.00317024
0.00315324
0.00312555
0.00309927
0.00307781
0.00305664
0.00303236
0.00300428
0.00297718
0.00294502
0.00291235
0.0028732
0.00282746
0.00277738
0.00271258
0.0026403
0.00255316
0.00244508
0.00232474
0.00218029
0.00330786
0.00330157
0.00329632
0.00329146
0.00326999
0.00324845
0.00324162
0.00322617
0.00319474
0.00317045
0.003157
0.00313781
0.00310766
0.00307849
0.00305383
0.00302906
0.00300055
0.00296805
0.00293539
0.0028978
0.00285821
0.00281216
0.00275878
0.00270023
0.00262805
0.00254692
0.00245277
0.0023382
0.00221212
0.00206525
0.00330959
0.00330274
0.00329646
0.00329017
0.003267
0.00324374
0.00323545
0.0032185
0.00318535
0.00315923
0.00314383
0.00312244
0.00308991
0.003058
0.00303044
0.00300245
0.0029702
0.00293381
0.00289633
0.00285409
0.00280862
0.00275681
0.0026971
0.00263181
0.00255355
0.002466
0.00236603
0.0022476
0.00211735
0.00196895
0.00331581
0.00330832
0.00330083
0.00329289
0.00326779
0.00324268
0.00323275
0.0032142
0.00317917
0.00315067
0.00313306
0.00310924
0.00307414
0.00303943
0.00300907
0.00297804
0.00294239
0.00290254
0.00286087
0.00281461
0.00276425
0.00270757
0.00264289
0.00257202
0.00248924
0.00239667
0.00229255
0.00217152
0.00203861
0.00188967
0.00332645
0.00331739
0.00330732
0.00329616
0.00326792
0.00324034
0.00322848
0.00320796
0.00317073
0.00314007
0.00312034
0.00309449
0.00305738
0.00302048
0.00298792
0.00295451
0.00291621
0.00287367
0.00282872
0.0027793
0.00272509
0.00266457
0.00259605
0.00252086
0.00243461
0.0023385
0.00223126
0.00210881
0.00197438
0.00182539
0.00334605
0.00333536
0.00332219
0.00330671
0.00327439
0.00324416
0.0032304
0.00320771
0.00316808
0.00313523
0.00311348
0.00308527
0.00304548
0.00300582
0.00297063
0.00293459
0.00289375
0.00284881
0.00280113
0.00274911
0.00269182
0.00262822
0.00255677
0.00247826
0.00238951
0.00229083
0.00218149
0.00205833
0.00192326
0.00177465
0.00336703
0.003352
0.00333295
0.00331124
0.00327511
0.00324334
0.00322797
0.00320296
0.00316116
0.00312626
0.00310193
0.00307062
0.00302824
0.00298695
0.00295084
0.00291406
0.0028722
0.00282613
0.00277691
0.00272331
0.00266399
0.00259826
0.0025248
0.0024439
0.00235342
0.00225309
0.00214243
0.00201909
0.00188402
0.00173613
0.00342038
0.00339505
0.00336235
0.00332788
0.00328559
0.00325266
0.00323488
0.00320581
0.0031612
0.00312483
0.00309844
0.00306446
0.00302008
0.00297711
0.00293878
0.00289997
0.00285601
0.00280884
0.00275839
0.00270355
0.00264266
0.0025754
0.00250048
0.0024179
0.00232628
0.00222488
0.00211349
0.00199029
0.0018556
0.00170876
0.00344918
0.00341186
0.00336862
0.00332866
0.00328554
0.00325295
0.00323295
0.00320178
0.00315695
0.00311906
0.00308806
0.00304886
0.00300124
0.00295679
0.00291831
0.00288014
0.00283847
0.00279285
0.00274276
0.00268807
0.00262671
0.00255887
0.00248333
0.00239973
0.00230759
0.00220571
0.00209397
0.0019713
0.00183723
0.00169095
0.00362887
0.00348689
0.00339063
0.00333887
0.00329977
0.003267
0.00323994
0.00320363
0.0031598
0.00312271
0.00308861
0.0030466
0.00299877
0.00295394
0.00291371
0.00287407
0.00283178
0.00278604
0.00273587
0.00268088
0.00261917
0.00255097
0.00247503
0.00239102
0.00229848
0.00219654
0.00208465
0.00196264
0.00182973
0.00168573
0.00516428
0.00460496
0.00404901
0.00320687
0.00278979
0.00231727
0.0003707
2.93538e-05
-0.000950404
-0.00335153
0.00455273
0.00414414
0.00341257
0.00257174
0.00214365
0.00151618
-9.89992e-05
-0.000630127
-0.00160431
-0.00342665
0.00416531
0.00374606
0.00314943
0.00256618
0.00202744
0.00144118
7.46621e-05
-0.000592117
-0.00161531
-0.00288023
0.00371263
0.00330413
0.0027973
0.00216863
0.00167018
0.00104698
9.92717e-05
-0.000720068
-0.00157653
-0.00262969
0.00335667
0.00300718
0.00252232
0.00203632
0.00153142
0.000940152
0.000129279
-0.000658227
-0.00139358
-0.00224083
0.00303678
0.00268595
0.00227214
0.00177479
0.00129427
0.000720734
3.5104e-05
-0.000711749
-0.00131558
-0.00201712
0.00276257
0.00245892
0.0020658
0.00163086
0.00118071
0.000658127
4.73109e-05
-0.000597687
-0.00112607
-0.00172239
0.00252747
0.00223779
0.0018795
0.00146645
0.0010395
0.000554817
1.51298e-05
-0.00056422
-0.00103472
-0.00152775
0.00232711
0.00206638
0.00173253
0.00135522
0.000959529
0.000520706
3.69226e-05
-0.00046067
-0.000880392
-0.00130944
0.00215803
0.00191518
0.00160241
0.00125227
0.000883227
0.000475535
4.40893e-05
-0.00039621
-0.0007793
-0.00114909
0.00201732
0.00179039
0.00150141
0.00117845
0.000834066
0.000461789
7.65935e-05
-0.000309835
-0.000657298
-0.000988686
0.00189976
0.00168624
0.00141656
0.00111511
0.000795768
0.000451236
0.000102878
-0.000243847
-0.000562551
-0.000860446
0.00180345
0.00159997
0.00134952
0.00106957
0.000771431
0.000454852
0.000137651
-0.00017478
-0.000467435
-0.000741114
0.00172465
0.00152997
0.00129598
0.00103374
0.000755514
0.000462118
0.000169842
-0.000117159
-0.00038832
-0.000641776
0.00166155
0.00147372
0.00125374
0.00100835
0.000747438
0.000474585
0.000202947
-6.29755e-05
-0.000316314
-0.000553881
0.00161217
0.00142985
0.00122176
0.000990587
0.00074488
0.000489232
0.000233973
-1.64681e-05
-0.000255694
-0.000480705
0.00157479
0.00139652
0.00119752
0.000978539
0.000746134
0.000504767
0.00026249
2.41761e-05
-0.000203986
-0.000419238
0.00154923
0.00137425
0.00118233
0.000973012
0.000751346
0.000521179
0.000288362
5.84236e-05
-0.000161836
-0.00036989
0.0015321
0.0013594
0.00117264
0.000971059
0.000757936
0.000536294
0.000310823
8.70717e-05
-0.000128255
-0.000331408
0.00152995
0.00135996
0.00117606
0.000978075
0.000768563
0.000550569
0.000328953
0.00010816
-0.000105257
-0.000308694
-0.00649655
-0.00692286
-0.00784362
-0.00986494
-0.0113384
-0.0114691
-0.00987971
-0.00714744
-0.00404807
-0.0013651
0.000571324
0.00175245
0.00227503
0.00238975
0.00228303
0.00207967
0.00184867
0.00162338
0.00141765
0.00123577
0.00107784
0.000941763
0.000824661
0.000724023
0.000637106
0.000561552
0.000495385
0.00043691
0.000384795
0.000337895
0.000295305
0.000256286
0.000220166
0.000186472
0.000154702
0.000124514
9.55355e-05
6.75412e-05
4.01826e-05
1.33197e-05
-0.00660037
-0.00694005
-0.00801826
-0.0103501
-0.0121848
-0.012376
-0.0106656
-0.0076963
-0.00444416
-0.00160877
0.000410211
0.00163813
0.00219482
0.00232486
0.002226
0.00202972
0.00180608
0.00158798
0.00138886
0.00121285
0.00105971
0.000927549
0.000813841
0.00071566
0.000630595
0.000556434
0.000491317
0.000433649
0.000382155
0.000335756
0.000293558
0.000254869
0.000219018
0.000185551
0.000153978
0.000123953
9.51206e-05
6.72198e-05
4.0005e-05
1.32726e-05
-0.00594938
-0.00714989
-0.00874807
-0.0119277
-0.0140771
-0.0142651
-0.0122673
-0.00888595
-0.00526631
-0.00215853
2.73209e-05
0.00136861
0.00199527
0.00216192
0.00208728
0.00191273
0.00171013
0.00151155
0.00132932
0.0011671
0.00102484
0.000900996
0.000793463
0.000699918
0.000618298
0.000546721
0.00048357
0.000427425
0.000377118
0.000331666
0.000290231
0.000252164
0.000216839
0.000183807
0.000152615
0.000122916
9.43788e-05
6.6746e-05
3.9758e-05
1.32216e-05
-0.00654958
-0.0073721
-0.00923013
-0.0135877
-0.0166154
-0.0169106
-0.0146194
-0.0105845
-0.00638172
-0.00289117
-0.000523707
0.000966853
0.00168904
0.00190965
0.00187646
0.00174087
0.00157374
0.00140531
0.00124738
0.00110408
0.000976298
0.000863418
0.000764135
0.000676859
0.000600015
0.000532108
0.000471792
0.000417875
0.000369331
0.0003253
0.000285024
0.000247909
0.000213385
0.000181025
0.000150416
0.000121221
9.31322e-05
6.59028e-05
3.92739e-05
1.30696e-05
-0.0058531
-0.00723359
-0.00960184
-0.0152293
-0.0188629
-0.0188551
-0.0160068
-0.011606
-0.00716191
-0.00356879
-0.00110134
0.00047019
0.00128597
0.00157372
0.00159749
0.00151544
0.0013966
0.00126886
0.00114283
0.00102375
0.000914188
0.000815038
0.000726164
0.000646841
0.000576107
0.000512925
0.000456291
0.000405274
0.00035904
0.000316872
0.000278117
0.000242255
0.000208783
0.000177311
0.000147465
0.000118937
9.14393e-05
6.47422e-05
3.85988e-05
1.28488e-05
-0.00631748
-0.0074411
-0.00984941
-0.0152961
-0.0188748
-0.0185824
-0.0157245
-0.0115307
-0.00735892
-0.00400878
-0.00169207
-0.000156619
0.000731149
0.00112616
0.00124957
0.00124914
0.00119233
0.00111304
0.00102412
0.000932696
0.000843659
0.000759849
0.000682548
0.000612055
0.000548128
0.000490255
0.000437811
0.00039014
0.000346606
0.000306638
0.000269697
0.000235341
0.000203138
0.000172744
0.000143827
0.000116112
8.93363e-05
6.32924e-05
3.7752e-05
1.25699e-05
-0.00643357
-0.00717594
-0.00862957
-0.0144067
-0.017526
-0.0170782
-0.0143204
-0.0106259
-0.00707298
-0.00416035
-0.00210787
-0.000762008
5.92717e-05
0.000520213
0.000792588
0.000929447
0.000964133
0.000943579
0.000894997
0.000832698
0.000765173
0.000697571
0.000632762
0.000572039
0.000515797
0.000463992
0.000416364
0.000372553
0.000332138
0.000294715
0.000259871
0.000227262
0.00019653
0.000167389
0.000139554
0.000112786
8.68551e-05
6.1577e-05
3.67473e-05
1.22373e-05
-0.00581384
-0.00398101
-0.0075523
-0.0131893
-0.0161796
-0.015456
-0.0128166
-0.00955865
-0.00657294
-0.00408756
-0.00224922
-0.00105062
-0.000330049
8.41108e-05
0.000368233
0.000577019
0.000706609
0.000759886
0.000760047
0.000729728
0.000684476
0.000633352
0.00058099
0.0005298
0.000481049
0.000435278
0.000392582
0.000352821
0.000315755
0.000281118
0.000248608
0.000217963
0.000188901
0.000161192
0.000134598
0.000108922
8.3967e-05
5.95766e-05
3.55738e-05
1.18482e-05
-0.00492277
-0.00552411
-0.0072919
-0.011514
-0.013777
-0.0129751
-0.0107464
-0.00814611
-0.00576573
-0.00373105
-0.00217393
-0.00112952
-0.000497029
-0.000114429
0.000158182
0.00037325
0.000519585
0.000595111
0.000623186
0.000620165
0.000596087
0.00056093
0.000521429
0.00048096
0.000441066
0.000402486
0.000365584
0.000330509
0.000297269
0.00026579
0.000235908
0.000207471
0.000180284
0.000154182
0.000128985
0.000104539
8.06869e-05
5.73021e-05
3.42379e-05
1.14048e-05
-0.00410515
-0.00457311
-0.00589593
-0.00862898
-0.0101751
-0.00982678
-0.00835993
-0.00668548
-0.00501839
-0.00345834
-0.00215815
-0.00122475
-0.000617894
-0.000220048
3.94679e-05
0.000228342
0.000374793
0.000473575
0.000517934
0.000527414
0.000517618
0.000496896
0.000468795
0.000436844
0.000403601
0.000370573
0.000338492
0.000307625
0.000278019
0.000249648
0.000222428
0.000196272
0.000171049
0.000146647
0.000122939
9.981e-05
7.7143e-05
5.4842e-05
3.27918e-05
1.09246e-05
-0.00339617
-0.00408005
-0.00505023
-0.00668126
-0.00767027
-0.00756326
-0.00667158
-0.00550592
-0.0042988
-0.00310493
-0.00207778
-0.00133003
-0.00078776
-0.000410283
-0.000125772
0.000151446
0.000356562
0.000438409
0.000450818
0.000454408
0.000444564
0.000427556
0.000407047
0.000384266
0.000359942
0.000334624
0.000308833
0.000283024
0.000257531
0.000232565
0.0002082
0.000184463
0.000161308
0.000138694
0.000116551
9.48085e-05
7.33914e-05
5.22355e-05
3.12587e-05
1.04155e-05
-0.0028694
-0.00349491
-0.0042889
-0.00531538
-0.00588855
-0.00589418
-0.00540903
-0.00456004
-0.00365272
-0.00278579
-0.00201191
-0.00137
-0.000886112
-0.000562953
-0.000371285
-0.000219787
-4.52914e-05
0.000149029
0.000294236
0.000363089
0.000385009
0.000381419
0.000366717
0.000347313
0.000325916
0.000303803
0.00028154
0.000259334
0.000237254
0.00021537
0.000193719
0.000172353
0.000151271
0.000130472
0.000109932
8.9617e-05
6.94924e-05
4.95242e-05
2.96629e-05
9.88538e-06
-0.00248844
-0.00299682
-0.00365127
-0.00437517
-0.00482337
-0.00481398
-0.00447331
-0.00391434
-0.00320607
-0.00251197
-0.00189464
-0.00133154
-0.000821338
-0.000526999
-0.000414415
-0.000271538
-6.5585e-05
0.00010276
0.000208394
0.000257932
0.000280652
0.000289953
0.000291295
0.000286926
0.000278059
0.00026565
0.000250638
0.00023388
0.000216058
0.000197635
0.000178884
0.000159985
0.000141029
0.000122079
0.00010317
8.43099e-05
6.55035e-05
4.67486e-05
2.80287e-05
9.34243e-06
-0.00215162
-0.00258532
-0.00310901
-0.00362799
-0.00392402
-0.00396448
-0.00377148
-0.00335174
-0.00280271
-0.00225847
-0.00176503
-0.00133828
-0.000972488
-0.000709792
-0.000514424
-0.000270531
-2.61785e-05
0.000124897
0.000201275
0.000239142
0.000258069
0.000265037
0.000264013
0.000257841
0.000248478
0.000237145
0.00022445
0.000210653
0.000195908
0.000180392
0.000164263
0.000147693
0.000130796
0.000113666
9.6377e-05
7.89693e-05
6.14849e-05
4.39503e-05
2.63804e-05
8.79471e-06
-0.00188602
-0.00224384
-0.00265495
-0.0030696
-0.00332338
-0.00334283
-0.00320083
-0.00292149
-0.00252153
-0.00207634
-0.00165685
-0.00126199
-0.000916983
-0.000687721
-0.000511103
-0.000360665
-0.000221679
-9.53628e-05
7.03871e-06
8.11236e-05
0.000131831
0.000165266
0.000186139
0.000197618
0.000201838
0.000200415
0.000194777
0.000186125
0.000175362
0.000163092
0.000149708
0.000135496
0.000120651
0.000105324
8.96369e-05
7.36666e-05
5.74923e-05
4.11686e-05
2.47413e-05
8.24999e-06
-0.00164333
-0.0019498
-0.00227872
-0.00260092
-0.00280116
-0.00285204
-0.00276309
-0.00254447
-0.00223098
-0.00188509
-0.001548
-0.00125577
-0.00100102
-0.000747036
-0.000529128
-0.000332197
-0.00016693
-4.51722e-05
3.74274e-05
9.25551e-05
0.000129015
0.00015213
0.000165687
0.000172572
0.00017486
0.000173834
0.000170155
0.000164189
0.000156249
0.00014666
0.000135713
0.000123683
0.000110783
9.71873e-05
8.305e-05
6.84776e-05
5.35819e-05
3.84425e-05
2.31343e-05
7.71593e-06
-0.00143955
-0.00170614
-0.00197731
-0.00224558
-0.00242287
-0.00246714
-0.00240747
-0.00225313
-0.00201584
-0.00174161
-0.00146135
-0.0011912
-0.000938257
-0.000725275
-0.000550623
-0.000413025
-0.000290561
-0.000182626
-9.4184e-05
-2.41704e-05
3.03053e-05
7.16235e-05
0.000101791
0.000122551
0.000135483
0.000142113
0.000143919
0.000142093
0.000137491
0.000130716
0.000122203
0.000112299
0.000101274
8.93427e-05
7.66955e-05
6.34684e-05
4.98048e-05
3.58084e-05
2.15812e-05
7.1997e-06
-0.00125724
-0.00149392
-0.00172203
-0.00194269
-0.00209562
-0.0021518
-0.00211849
-0.0020068
-0.00182161
-0.00159283
-0.00135988
-0.00114556
-0.000952386
-0.000759534
-0.000581439
-0.000424073
-0.000286493
-0.000175412
-9.05226e-05
-2.70553e-05
1.99617e-05
5.44189e-05
7.93565e-05
9.71546e-05
0.000109501
0.000117403
0.000121485
0.000122263
0.000120232
0.000115846
0.000109503
0.000101549
9.2269e-05
8.1899e-05
7.06579e-05
5.87046e-05
4.62107e-05
3.33008e-05
2.01024e-05
6.70818e-06
-0.00110258
-0.00131727
-0.00151862
-0.00170921
-0.00184564
-0.00190262
-0.00188632
-0.0018033
-0.00165991
-0.00148296
-0.00129281
-0.00110325
-0.00091447
-0.000737542
-0.000586114
-0.000456076
-0.000345867
-0.000249952
-0.000168335
-0.000100464
-4.48598e-05
-2.18226e-07
3.45696e-05
6.06262e-05
7.9258e-05
9.18445e-05
9.95917e-05
0.000103411
0.000104007
0.000101931
9.76383e-05
9.15059e-05
8.38521e-05
7.49373e-05
6.50078e-05
5.42445e-05
4.28446e-05
3.09519e-05
1.87169e-05
6.24774e-06
-0.00096829
-0.00116548
-0.00134427
-0.00150676
-0.00163355
-0.00169424
-0.0016915
-0.00163524
-0.00152639
-0.00137724
-0.00121275
-0.00105286
-0.000899656
-0.000751342
-0.000609717
-0.000481701
-0.000366866
-0.000267619
-0.000185605
-0.000119326
-6.6312e-05
-2.41365e-05
9.27844e-06
3.54805e-05
5.55358e-05
7.02539e-05
8.03656e-05
8.65224e-05
8.93145e-05
8.92549e-05
8.67898e-05
8.23024e-05
7.61273e-05
6.85417e-05
5.98138e-05
5.01429e-05
3.97486e-05
2.87913e-05
1.74427e-05
5.82433e-06
-0.000854556
-0.00103912
-0.00120428
-0.00135279
-0.00146699
-0.00152858
-0.00153715
-0.0014975
-0.00141153
-0.00129247
-0.00115955
-0.00102203
-0.000882739
-0.000743934
-0.000613344
-0.000496601
-0.000393655
-0.000304289
-0.000226702
-0.000160156
-0.000104077
-5.76968e-05
-2.01096e-05
9.72642e-06
3.28889e-05
5.03351e-05
6.28973e-05
7.12758e-05
7.60854e-05
7.78493e-05
7.70288e-05
7.40186e-05
6.91718e-05
6.27816e-05
5.5135e-05
4.64483e-05
3.69605e-05
2.68462e-05
1.62958e-05
5.44346e-06
-0.000757664
-0.00093306
-0.00108771
-0.00122332
-0.00132981
-0.00139198
-0.00140819
-0.00138359
-0.00131932
-0.00122248
-0.00110751
-0.000986526
-0.000864385
-0.00074241
-0.000625352
-0.000516723
-0.000418052
-0.000329584
-0.00025198
-0.00018534
-0.000129005
-8.19188e-05
-4.30452e-05
-1.14632e-05
1.36803e-05
3.31639e-05
4.77086e-05
5.79571e-05
6.44988e-05
6.78446e-05
6.84594e-05
6.67423e-05
6.30608e-05
5.7721e-05
5.10252e-05
4.32048e-05
3.45146e-05
2.5141e-05
1.52913e-05
5.11022e-06
-0.000677006
-0.000846263
-0.000993816
-0.00112094
-0.00122093
-0.00128345
-0.00130659
-0.00129312
-0.00124378
-0.00116448
-0.00106788
-0.000963777
-0.000855345
-0.000744386
-0.000635171
-0.000532105
-0.000437489
-0.000352012
-0.000276058
-0.00020972
-0.000152601
-0.000104076
-6.34392e-05
-2.99647e-05
-2.91786e-06
1.84098e-05
3.46976e-05
4.65697e-05
5.46046e-05
5.93082e-05
6.11532e-05
6.05418e-05
5.78572e-05
5.34152e-05
4.75314e-05
4.04516e-05
3.24422e-05
2.36984e-05
1.44429e-05
4.82995e-06
-0.000610528
-0.000775789
-0.000918542
-0.00103966
-0.0011352
-0.0011979
-0.00122573
-0.00122087
-0.00118436
-0.00112045
-0.00103855
-0.000946754
-0.000848782
-0.00074697
-0.000645193
-0.000547465
-0.000456226
-0.000372585
-0.000297207
-0.00023049
-0.000172393
-0.00012254
-8.03839e-05
-4.53051e-05
-1.66542e-05
6.22459e-06
2.39699e-05
3.71987e-05
4.64772e-05
5.23076e-05
5.51718e-05
5.54721e-05
5.36098e-05
4.99062e-05
4.46891e-05
3.8218e-05
3.07677e-05
2.25365e-05
1.37615e-05
4.60569e-06
-0.000557728
-0.000721344
-0.000861338
-0.000978269
-0.00107018
-0.00113257
-0.00116412
-0.00116654
-0.00114057
-0.00108895
-0.00101875
-0.000937024
-0.00084758
-0.000752926
-0.000656608
-0.000562462
-0.000473221
-0.000390451
-0.000315117
-0.0002478
-0.000188667
-0.000137529
-9.39798e-05
-5.74909e-05
-2.74724e-05
-3.30047e-06
1.56231e-05
2.99455e-05
4.02131e-05
4.69331e-05
5.05963e-05
5.16044e-05
5.03822e-05
4.72469e-05
4.2544e-05
3.65407e-05
2.95235e-05
2.16787e-05
1.32652e-05
4.44878e-06
-0.000517086
-0.00068092
-0.000820878
-0.000935771
-0.00102508
-0.00108701
-0.00112112
-0.00112867
-0.00111065
-0.00106948
-0.00101001
-0.000937101
-0.000854241
-0.000764463
-0.000671407
-0.000578919
-0.000490055
-0.000406849
-0.000330591
-0.000262051
-0.000201545
-0.000149008
-0.000104114
-6.63684e-05
-3.51999e-05
-9.97921e-06
9.82283e-06
2.49668e-05
3.59507e-05
4.33051e-05
4.75274e-05
4.90233e-05
4.82438e-05
4.54939e-05
4.1143e-05
3.54564e-05
2.87535e-05
2.11523e-05
1.29837e-05
4.38259e-06
-0.000496812
-0.000661282
-0.000800612
-0.000914456
-0.00100226
-0.00106348
-0.00109874
-0.00110891
-0.00109465
-0.00105835
-0.0010041
-0.000935803
-0.000856623
-0.000769733
-0.000678825
-0.000587604
-0.000499203
-0.000415901
-0.000339205
-0.000270021
-0.000208764
-0.00015545
-0.000109806
-7.13649e-05
-3.95707e-05
-1.37825e-05
6.7001e-06
2.23181e-05
3.36921e-05
4.13907e-05
4.59076e-05
4.76668e-05
4.7118e-05
4.45705e-05
4.03995e-05
3.48584e-05
2.82235e-05
2.08202e-05
1.27962e-05
4.32894e-06
)
;

boundaryField
{
    inlet
    {
        type            zeroGradient;
    }
    outlet
    {
        type            fixedValue;
        value           uniform 0;
    }
    lowerWall
    {
        type            zeroGradient;
    }
    upperWall
    {
        type            zeroGradient;
    }
    defaultFaces
    {
        type            empty;
    }
}


// ************************************************************************* //
