/*--------------------------------*- C++ -*----------------------------------*\
| =========                 |                                                 |
| \\      /  F ield         | OpenFOAM: The Open Source CFD Toolbox           |
|  \\    /   O peration     | Version:  2112                                  |
|   \\  /    A nd           | Website:  www.openfoam.com                      |
|    \\/     M anipulation  |                                                 |
\*---------------------------------------------------------------------------*/
FoamFile
{
    version     2.0;
    format      ascii;
    arch        "LSB;label=32;scalar=64";
    class       surfaceScalarField;
    location    "0.15";
    object      phi;
}
// * * * * * * * * * * * * * * * * * * * * * * * * * * * * * * * * * * * * * //

dimensions      [0 3 -1 0 0 0 0];

oriented        oriented;

internalField   nonuniform List<scalar> 
3653
(
9.92605e-07
7.39465e-09
9.7938e-07
1.32251e-08
9.64353e-07
1.50271e-08
9.48788e-07
1.55649e-08
9.32417e-07
1.6371e-08
9.15223e-07
1.71947e-08
8.98218e-07
1.70047e-08
8.81836e-07
1.63821e-08
8.64679e-07
1.71568e-08
8.45949e-07
1.87299e-08
8.26733e-07
1.92165e-08
8.09178e-07
1.7555e-08
7.93825e-07
1.53527e-08
7.81859e-07
1.19663e-08
7.71533e-07
1.03255e-08
7.64817e-07
6.71573e-09
7.56762e-07
8.05596e-09
7.52491e-07
4.27095e-09
7.43258e-07
9.23238e-09
7.38835e-07
4.42363e-09
7.26768e-07
1.20667e-08
7.19456e-07
7.31158e-09
7.03334e-07
1.61219e-08
6.90212e-07
1.31225e-08
6.67003e-07
2.32088e-08
6.43002e-07
2.40012e-08
6.07754e-07
3.52481e-08
5.56239e-07
5.15146e-08
5.00103e-07
5.61363e-08
1.23232e-07
3.76871e-07
1.00297e-06
4.41979e-09
1.00646e-06
9.73593e-09
1.00891e-06
1.25819e-08
1.01046e-06
1.40161e-08
1.01169e-06
1.51378e-08
1.01245e-06
1.6433e-08
1.01241e-06
1.70491e-08
1.0118e-06
1.69921e-08
1.01125e-06
1.77098e-08
1.01073e-06
1.92464e-08
1.00965e-06
2.02993e-08
1.00763e-06
1.95673e-08
1.00478e-06
1.82073e-08
1.00128e-06
1.5466e-08
9.97149e-07
1.44561e-08
9.92836e-07
1.10291e-08
9.87628e-07
1.32631e-08
9.82917e-07
8.98251e-09
9.75806e-07
1.63434e-08
9.70443e-07
9.78596e-09
9.60445e-07
2.20646e-08
9.52597e-07
1.51602e-08
9.40018e-07
2.87002e-08
9.25597e-07
2.75435e-08
9.09369e-07
3.94376e-08
8.86934e-07
4.64355e-08
8.55812e-07
6.63706e-08
8.35142e-07
7.21842e-08
7.65015e-07
1.26263e-07
1.24162e-07
7.64084e-07
1.00181e-06
2.61115e-09
1.00483e-06
6.71264e-09
1.00765e-06
9.75959e-09
1.01004e-06
1.16314e-08
1.01229e-06
1.28881e-08
1.01449e-06
1.42321e-08
1.01631e-06
1.52312e-08
1.01767e-06
1.56252e-08
1.01916e-06
1.62232e-08
1.02108e-06
1.7329e-08
1.02288e-06
1.84983e-08
1.02376e-06
1.86877e-08
1.02341e-06
1.85612e-08
1.02161e-06
1.72595e-08
1.01884e-06
1.72315e-08
1.01474e-06
1.51227e-08
1.01049e-06
1.75116e-08
1.00518e-06
1.42925e-08
9.99847e-07
2.16809e-08
9.9391e-07
1.57229e-08
9.86267e-07
2.97068e-08
9.79809e-07
2.16181e-08
9.68399e-07
4.01107e-08
9.59812e-07
3.61309e-08
9.44877e-07
5.43723e-08
9.30784e-07
6.05283e-08
9.14136e-07
8.30188e-08
8.91496e-07
9.48241e-08
8.77464e-07
1.40296e-07
1.52264e-07
8.49362e-07
1.00084e-06
1.76809e-09
1.00252e-06
5.03087e-09
1.00456e-06
7.72842e-09
1.00658e-06
9.60607e-09
1.00848e-06
1.09893e-08
1.01036e-06
1.23478e-08
1.01212e-06
1.34709e-08
1.01366e-06
1.40923e-08
1.01523e-06
1.46541e-08
1.01703e-06
1.55271e-08
1.01875e-06
1.67757e-08
1.01982e-06
1.76143e-08
1.01996e-06
1.84272e-08
1.01901e-06
1.82082e-08
1.01723e-06
1.90121e-08
1.01441e-06
1.79385e-08
1.01141e-06
2.05199e-08
1.00708e-06
1.86192e-08
1.00347e-06
2.52873e-08
9.97435e-07
2.17602e-08
9.93214e-07
3.39273e-08
9.85097e-07
2.97357e-08
9.79375e-07
4.58324e-08
9.69681e-07
4.58256e-08
9.60782e-07
6.3271e-08
9.50845e-07
7.04654e-08
9.38311e-07
9.55521e-08
9.2883e-07
1.04305e-07
9.19237e-07
1.49888e-07
1.58619e-07
9.12882e-07
1.00042e-06
1.34983e-09
1.00154e-06
3.91017e-09
1.00313e-06
6.13652e-09
1.00487e-06
7.86286e-09
1.00657e-06
9.29152e-09
1.00827e-06
1.06492e-08
1.00994e-06
1.18032e-08
1.01146e-06
1.25714e-08
1.01292e-06
1.31964e-08
1.01442e-06
1.40254e-08
1.01592e-06
1.52778e-08
1.01701e-06
1.65188e-08
1.01761e-06
1.7832e-08
1.01728e-06
1.85402e-08
1.01648e-06
1.98111e-08
1.01447e-06
1.99412e-08
1.01253e-06
2.24588e-08
1.00904e-06
2.21103e-08
1.00647e-06
2.7863e-08
1.00144e-06
2.6791e-08
9.98466e-07
3.68978e-08
9.91664e-07
3.65386e-08
9.88423e-07
4.90733e-08
9.79629e-07
5.46192e-08
9.76621e-07
6.62788e-08
9.65864e-07
8.12232e-08
9.64126e-07
9.72893e-08
9.54669e-07
1.13762e-07
9.54565e-07
1.49993e-07
1.59733e-07
9.53451e-07
1.00033e-06
1.01877e-09
1.00117e-06
3.07547e-09
1.00239e-06
4.9168e-09
1.00383e-06
6.42284e-09
1.00534e-06
7.77546e-09
1.0069e-06
9.09441e-09
1.00845e-06
1.02511e-08
1.00992e-06
1.11016e-08
1.01133e-06
1.17884e-08
1.01271e-06
1.26388e-08
1.01409e-06
1.39046e-08
1.0152e-06
1.54069e-08
1.016e-06
1.70284e-08
1.01613e-06
1.84108e-08
1.01594e-06
2.00041e-08
1.01476e-06
2.11177e-08
1.01369e-06
2.35287e-08
1.01118e-06
2.46216e-08
1.00964e-06
2.93984e-08
1.00579e-06
3.06459e-08
1.00399e-06
3.86999e-08
9.99196e-07
4.13307e-08
9.9653e-07
5.17387e-08
9.92249e-07
5.89001e-08
9.8792e-07
7.06079e-08
9.85351e-07
8.37926e-08
9.82011e-07
1.00629e-07
9.79808e-07
1.15965e-07
9.84692e-07
1.45109e-07
1.5922e-07
9.85205e-07
1.00023e-06
7.86372e-10
1.00088e-06
2.42626e-09
1.00186e-06
3.93674e-09
1.0031e-06
5.18578e-09
1.0045e-06
6.37909e-09
1.00597e-06
7.61967e-09
1.00746e-06
8.75878e-09
1.00892e-06
9.64548e-09
1.01035e-06
1.03594e-08
1.01175e-06
1.12324e-08
1.01317e-06
1.24905e-08
1.01441e-06
1.41624e-08
1.01548e-06
1.59592e-08
1.01604e-06
1.78552e-08
1.01638e-06
1.96645e-08
1.01592e-06
2.15736e-08
1.01555e-06
2.38978e-08
1.01401e-06
2.61644e-08
1.0133e-06
3.0108e-08
1.01065e-06
3.32908e-08
1.01009e-06
3.9267e-08
1.00646e-06
4.49556e-08
1.00631e-06
5.18934e-08
1.00247e-06
6.27404e-08
1.00278e-06
7.02921e-08
1.00033e-06
8.62464e-08
1.00176e-06
9.9197e-08
1.00329e-06
1.14439e-07
1.00823e-06
1.40165e-07
1.52008e-07
1.01544e-06
1.00019e-06
5.94159e-10
1.00075e-06
1.86855e-09
1.00162e-06
3.06324e-09
1.00274e-06
4.06511e-09
1.00406e-06
5.06155e-09
1.0055e-06
6.1802e-09
1.00699e-06
7.27466e-09
1.00846e-06
8.17143e-09
1.00992e-06
8.8939e-09
1.01138e-06
9.77606e-09
1.01286e-06
1.1007e-08
1.01426e-06
1.27672e-08
1.01557e-06
1.46509e-08
1.01652e-06
1.6907e-08
1.01731e-06
1.88659e-08
1.01751e-06
2.13795e-08
1.01777e-06
2.36385e-08
1.01715e-06
2.67787e-08
1.01714e-06
3.01198e-08
1.01587e-06
3.45645e-08
1.01587e-06
3.9269e-08
1.01449e-06
4.63286e-08
1.01442e-06
5.19649e-08
1.01417e-06
6.29916e-08
1.01423e-06
7.02301e-08
1.01586e-06
8.46179e-08
1.01883e-06
9.62256e-08
1.02176e-06
1.11514e-07
1.03132e-06
1.306e-07
1.45369e-07
1.03796e-06
1.00017e-06
4.19182e-10
1.00069e-06
1.35128e-09
1.0015e-06
2.25135e-09
1.00257e-06
2.99904e-09
1.00386e-06
3.77581e-09
1.00529e-06
4.74444e-09
1.0068e-06
5.76898e-09
1.00832e-06
6.64945e-09
1.00986e-06
7.35498e-09
1.01142e-06
8.21653e-09
1.01303e-06
9.39466e-09
1.01462e-06
1.11764e-08
1.01618e-06
1.30901e-08
1.01751e-06
1.55788e-08
1.01873e-06
1.765e-08
1.01952e-06
2.05866e-08
1.02034e-06
2.28175e-08
1.02055e-06
2.65658e-08
1.02124e-06
2.94283e-08
1.02102e-06
3.47863e-08
1.02198e-06
3.83128e-08
1.02179e-06
4.65187e-08
1.02321e-06
5.05418e-08
1.0241e-06
6.21004e-08
1.02626e-06
6.80691e-08
1.02944e-06
8.14416e-08
1.03376e-06
9.19021e-08
1.04013e-06
1.05149e-07
1.04885e-06
1.21875e-07
1.34727e-07
1.0595e-06
1.00017e-06
2.48723e-10
1.00068e-06
8.43653e-10
1.00148e-06
1.44648e-09
1.00255e-06
1.93677e-09
1.00384e-06
2.47858e-09
1.00532e-06
3.26995e-09
1.00689e-06
4.19792e-09
1.0085e-06
5.03801e-09
1.01014e-06
5.71002e-09
1.01183e-06
6.52913e-09
1.01359e-06
7.6334e-09
1.01539e-06
9.37916e-09
1.0172e-06
1.12794e-08
1.01889e-06
1.3893e-08
1.02048e-06
1.60527e-08
1.02182e-06
1.92507e-08
1.02314e-06
2.15023e-08
1.02411e-06
2.55873e-08
1.02536e-06
2.8177e-08
1.02622e-06
3.39316e-08
1.02774e-06
3.67947e-08
1.02904e-06
4.52165e-08
1.03106e-06
4.85227e-08
1.03371e-06
5.94484e-08
1.03691e-06
6.48705e-08
1.04143e-06
7.69191e-08
1.04769e-06
8.56425e-08
1.0543e-06
9.85404e-08
1.06531e-06
1.10861e-07
1.24134e-07
1.07591e-06
1.00018e-06
7.1909e-11
1.00071e-06
3.14537e-10
1.00154e-06
6.09044e-10
1.00265e-06
8.28992e-10
1.00401e-06
1.1223e-09
1.00556e-06
1.71703e-09
1.00723e-06
2.52907e-09
1.00896e-06
3.31213e-09
1.01072e-06
3.9401e-09
1.01256e-06
4.69681e-09
1.01449e-06
5.70434e-09
1.0165e-06
7.36341e-09
1.01856e-06
9.21919e-09
1.02058e-06
1.18759e-08
1.02253e-06
1.4107e-08
1.02433e-06
1.74417e-08
1.0261e-06
1.97411e-08
1.02771e-06
2.39693e-08
1.0295e-06
2.63855e-08
1.0312e-06
3.22411e-08
1.03337e-06
3.46209e-08
1.03568e-06
4.29026e-08
1.03856e-06
4.56484e-08
1.0423e-06
5.57044e-08
1.04654e-06
6.06363e-08
1.05233e-06
7.11203e-08
1.05912e-06
7.88543e-08
1.06759e-06
9.00723e-08
1.07825e-06
1.00207e-07
1.11882e-07
1.0905e-06
1.00019e-06
-1.20529e-10
1.00077e-06
-2.62968e-10
1.00168e-06
-3e-10
1.00287e-06
-3.61034e-10
1.00432e-06
-3.28125e-10
1.00599e-06
5.00327e-11
1.00778e-06
7.35924e-10
1.00965e-06
1.44494e-09
1.01157e-06
2.01791e-09
1.01357e-06
2.69352e-09
1.01569e-06
3.58728e-09
1.01793e-06
5.12273e-09
1.02024e-06
6.91191e-09
1.02256e-06
9.55104e-09
1.02482e-06
1.18483e-08
1.02703e-06
1.52293e-08
1.02917e-06
1.76061e-08
1.03132e-06
2.18126e-08
1.03355e-06
2.41574e-08
1.03597e-06
2.98267e-08
1.03864e-06
3.1944e-08
1.04185e-06
3.96965e-08
1.04538e-06
4.21163e-08
1.05e-06
5.1088e-08
1.05515e-06
5.54869e-08
1.06156e-06
6.47048e-08
1.0694e-06
7.10185e-08
1.07822e-06
8.12492e-08
1.08955e-06
8.88759e-08
9.94718e-08
1.10196e-06
1.00023e-06
-3.4651e-10
1.00089e-06
-9.27979e-10
1.00193e-06
-1.34051e-09
1.00328e-06
-1.7069e-09
1.00488e-06
-1.93051e-09
1.00668e-06
-1.75358e-09
1.00864e-06
-1.2192e-09
1.01067e-06
-5.87708e-10
1.01274e-06
-5.27078e-11
1.01491e-06
5.24131e-10
1.01721e-06
1.28387e-09
1.01966e-06
2.67323e-09
1.02218e-06
4.39239e-09
1.02476e-06
6.9771e-09
1.02727e-06
9.33375e-09
1.0298e-06
1.26969e-08
1.03225e-06
1.51624e-08
1.03483e-06
1.92353e-08
1.03743e-06
2.15551e-08
1.0404e-06
2.68506e-08
1.04353e-06
2.88151e-08
1.04741e-06
3.58152e-08
1.05152e-06
3.80149e-08
1.05682e-06
4.57822e-08
1.06257e-06
4.97335e-08
1.06971e-06
5.75704e-08
1.07786e-06
6.28662e-08
1.08745e-06
7.16608e-08
1.09869e-06
7.76323e-08
8.66811e-08
1.11148e-06
1.00026e-06
-6.09612e-10
1.00103e-06
-1.69521e-09
1.00223e-06
-2.54513e-09
1.00377e-06
-3.23921e-09
1.00554e-06
-3.69956e-09
1.00751e-06
-3.72613e-09
1.00964e-06
-3.35428e-09
1.01188e-06
-2.81963e-09
1.01418e-06
-2.35424e-09
1.01657e-06
-1.87193e-09
1.01912e-06
-1.25993e-09
1.02185e-06
-5.56326e-11
1.02461e-06
1.63278e-09
1.0274e-06
4.17981e-09
1.03011e-06
6.62938e-09
1.03284e-06
9.96844e-09
1.03547e-06
1.25285e-08
1.03831e-06
1.63935e-08
1.04117e-06
1.86954e-08
1.04454e-06
2.34848e-08
1.04802e-06
2.53361e-08
1.05238e-06
3.14484e-08
1.05695e-06
3.34454e-08
1.06272e-06
4.00139e-08
1.069e-06
4.34574e-08
1.07652e-06
5.00511e-08
1.08507e-06
5.43077e-08
1.09493e-06
6.18021e-08
1.10624e-06
6.63259e-08
7.39143e-08
1.11901e-06
1.00038e-06
-9.9415e-10
1.00139e-06
-2.69595e-09
1.00289e-06
-4.04651e-09
1.0047e-06
-5.05745e-09
1.0067e-06
-5.6983e-09
1.00889e-06
-5.91433e-09
1.01125e-06
-5.71282e-09
1.01369e-06
-5.25537e-09
1.01617e-06
-4.84276e-09
1.0188e-06
-4.4936e-09
1.02157e-06
-4.03574e-09
1.02443e-06
-2.91217e-09
1.02728e-06
-1.22113e-09
1.03013e-06
1.33037e-09
1.03288e-06
3.88637e-09
1.03568e-06
7.16366e-09
1.03842e-06
9.78579e-09
1.04144e-06
1.33756e-08
1.04451e-06
1.56281e-08
1.04816e-06
1.98316e-08
1.05194e-06
2.15601e-08
1.05666e-06
2.67237e-08
1.06161e-06
2.8499e-08
1.06772e-06
3.3897e-08
1.07436e-06
3.68219e-08
1.08222e-06
4.21932e-08
1.09095e-06
4.55764e-08
1.10104e-06
5.17128e-08
1.11225e-06
5.51126e-08
6.12204e-08
1.12495e-06
1.00047e-06
-1.46664e-09
1.00179e-06
-4.01227e-09
1.00372e-06
-5.97342e-09
1.0059e-06
-7.2406e-09
1.00815e-06
-7.95154e-09
1.01059e-06
-8.34964e-09
1.0132e-06
-8.32946e-09
1.01586e-06
-7.91117e-09
1.01857e-06
-7.55105e-09
1.02148e-06
-7.40745e-09
1.02459e-06
-7.14869e-09
1.02778e-06
-6.09983e-09
1.03086e-06
-4.30211e-09
1.03384e-06
-1.64374e-09
1.03659e-06
1.13356e-09
1.03929e-06
4.46125e-09
1.0419e-06
7.18225e-09
1.04481e-06
1.04657e-08
1.04784e-06
1.25964e-08
1.05155e-06
1.61197e-08
1.05546e-06
1.76521e-08
1.06036e-06
2.18199e-08
1.06556e-06
2.3304e-08
1.07188e-06
2.75783e-08
1.07878e-06
2.99188e-08
1.08682e-06
3.41521e-08
1.09569e-06
3.67106e-08
1.10584e-06
4.15585e-08
1.11696e-06
4.39939e-08
4.87278e-08
1.12945e-06
1.00091e-06
-2.37235e-09
1.0028e-06
-5.90823e-09
1.00521e-06
-8.37944e-09
1.00774e-06
-9.77111e-09
1.01028e-06
-1.0491e-08
1.013e-06
-1.10673e-08
1.01583e-06
-1.11602e-08
1.01865e-06
-1.07325e-08
1.02166e-06
-1.05651e-08
1.02508e-06
-1.08298e-08
1.02868e-06
-1.0749e-08
1.03207e-06
-9.49016e-09
1.03501e-06
-7.23297e-09
1.03756e-06
-4.19757e-09
1.03977e-06
-1.07472e-09
1.04205e-06
2.17648e-09
1.04438e-06
4.85334e-09
1.0472e-06
7.64871e-09
1.05025e-06
9.54909e-09
1.05407e-06
1.22968e-08
1.05814e-06
1.35813e-08
1.06322e-06
1.67398e-08
1.06863e-06
1.78887e-08
1.07512e-06
2.10894e-08
1.08221e-06
2.28324e-08
1.09039e-06
2.59712e-08
1.09932e-06
2.77805e-08
1.10949e-06
3.13936e-08
1.12047e-06
3.30129e-08
3.64182e-08
1.13278e-06
1.00188e-06
-4.25644e-09
1.00516e-06
-9.1813e-09
1.0084e-06
-1.16216e-08
1.01134e-06
-1.27092e-08
1.01429e-06
-1.34403e-08
1.0174e-06
-1.41834e-08
1.0204e-06
-1.41617e-08
1.02319e-06
-1.3515e-08
1.02625e-06
-1.36303e-08
1.02993e-06
-1.45066e-08
1.03378e-06
-1.4601e-08
1.03722e-06
-1.29285e-08
1.03999e-06
-9.99882e-09
1.04221e-06
-6.42459e-09
1.04401e-06
-2.86797e-09
1.04571e-06
4.69906e-10
1.04744e-06
3.12792e-09
1.04974e-06
5.35043e-09
1.05241e-06
6.87482e-09
1.05603e-06
8.67706e-09
1.06001e-06
9.60033e-09
1.06513e-06
1.16202e-08
1.07063e-06
1.23937e-08
1.07725e-06
1.44665e-08
1.08444e-06
1.56448e-08
1.09276e-06
1.76459e-08
1.10171e-06
1.88334e-08
1.11194e-06
2.11622e-08
1.12283e-06
2.21239e-08
2.43664e-08
1.13488e-06
1.00305e-06
-7.3051e-09
1.0068e-06
-1.2933e-08
1.00971e-06
-1.45282e-08
1.01188e-06
-1.48823e-08
1.01391e-06
-1.54672e-08
1.01572e-06
-1.59932e-08
1.01704e-06
-1.54816e-08
1.01807e-06
-1.45519e-08
1.01939e-06
-1.49507e-08
1.02104e-06
-1.61504e-08
1.02252e-06
-1.60844e-08
1.02364e-06
-1.40519e-08
1.02459e-06
-1.09405e-08
1.02563e-06
-7.46414e-09
1.02688e-06
-4.12621e-09
1.02859e-06
-1.2367e-09
1.03088e-06
8.40204e-10
1.03388e-06
2.34934e-09
1.03739e-06
3.36192e-09
1.04175e-06
4.32399e-09
1.04645e-06
4.89832e-09
1.05222e-06
5.84352e-09
1.05833e-06
6.29245e-09
1.06555e-06
7.24646e-09
1.0733e-06
7.886e-09
1.08219e-06
8.75701e-09
1.0916e-06
9.42595e-09
1.10234e-06
1.04266e-08
1.11362e-06
1.08383e-08
1.16925e-08
1.1263e-06
9.92695e-07
9.79762e-07
9.65234e-07
9.50351e-07
9.34884e-07
9.18891e-07
9.03409e-07
8.88857e-07
8.73907e-07
8.57756e-07
8.41672e-07
8.2762e-07
8.1668e-07
8.09215e-07
8.05089e-07
8.03853e-07
8.04693e-07
8.07042e-07
8.10404e-07
8.14728e-07
8.19626e-07
8.2547e-07
8.31762e-07
8.39009e-07
8.46895e-07
8.55652e-07
8.65078e-07
8.75504e-07
8.86343e-07
8.98035e-07
4.84898e-07
-1.08026e-07
5.97518e-07
-1.1262e-07
5.84677e-07
1.28405e-08
6.33664e-07
-4.89867e-08
7.79172e-07
-1.45508e-07
7.17926e-07
6.12461e-08
6.6357e-07
5.43558e-08
8.32163e-07
-1.68593e-07
9.42812e-07
-1.10649e-07
-4.49027e-08
9.87715e-07
7.90415e-07
-1.34357e-07
8.00971e-07
-1.23176e-07
8.62163e-07
-4.83516e-08
8.7971e-07
-6.6533e-08
9.095e-07
-1.75299e-07
9.51187e-07
1.95597e-08
9.20371e-07
8.51712e-08
9.71455e-07
-2.19677e-07
1.10205e-06
-2.41239e-07
-5.33009e-08
1.11044e-06
8.57299e-07
-1.42294e-07
8.6587e-07
-1.31746e-07
9.11734e-07
-9.42158e-08
9.24097e-07
-7.88959e-08
8.76582e-07
-1.27785e-07
9.74171e-07
-7.80293e-08
1.05069e-06
8.65023e-09
1.03965e-06
-2.08631e-07
1.02424e-06
-2.25828e-07
-1.1013e-07
1.08106e-06
9.17553e-07
-1.46965e-07
9.224e-07
-1.36593e-07
9.3745e-07
-1.09266e-07
9.6433e-07
-1.05776e-07
9.52827e-07
-1.16281e-07
9.77091e-07
-1.02294e-07
1.04661e-06
-6.08664e-08
1.04137e-06
-2.03398e-07
1.0201e-06
-2.04556e-07
-1.70113e-07
1.08008e-06
9.51604e-07
-1.45117e-07
9.58063e-07
-1.43053e-07
9.68102e-07
-1.19305e-07
9.78943e-07
-1.16618e-07
9.79822e-07
-1.17159e-07
1.00591e-06
-1.2838e-07
1.03915e-06
-9.41075e-08
1.03233e-06
-1.96578e-07
1.03583e-06
-2.08052e-07
-2.1842e-07
1.08413e-06
9.87636e-07
-1.47547e-07
9.8906e-07
-1.44476e-07
9.93747e-07
-1.23993e-07
1.00306e-06
-1.25933e-07
1.00926e-06
-1.23357e-07
1.01694e-06
-1.3606e-07
1.04702e-06
-1.24188e-07
1.04673e-06
-1.96289e-07
1.04056e-06
-2.01885e-07
-2.30355e-07
1.0525e-06
1.01291e-06
-1.45016e-07
1.01066e-06
-1.42229e-07
1.01401e-06
-1.27335e-07
1.01893e-06
-1.30854e-07
1.02375e-06
-1.28179e-07
1.03053e-06
-1.42845e-07
1.04309e-06
-1.36743e-07
1.03973e-06
-1.92932e-07
1.044e-06
-2.06148e-07
-2.41266e-07
1.05491e-06
1.03557e-06
-1.42624e-07
1.03314e-06
-1.39802e-07
1.03398e-06
-1.28176e-07
1.03465e-06
-1.31515e-07
1.03689e-06
-1.30422e-07
1.03932e-06
-1.45281e-07
1.0488e-06
-1.46216e-07
1.04229e-06
-1.86427e-07
1.03781e-06
-2.01665e-07
-2.3819e-07
1.03473e-06
1.05445e-06
-1.37575e-07
1.04851e-06
-1.33866e-07
1.04639e-06
-1.26056e-07
1.04529e-06
-1.30413e-07
1.04522e-06
-1.30353e-07
1.04348e-06
-1.43538e-07
1.04443e-06
-1.47171e-07
1.03883e-06
-1.80824e-07
1.03438e-06
-1.9722e-07
-2.30348e-07
1.02654e-06
1.06917e-06
-1.30835e-07
1.06307e-06
-1.27765e-07
1.05926e-06
-1.22246e-07
1.05476e-06
-1.25914e-07
1.05158e-06
-1.27181e-07
1.04736e-06
-1.39317e-07
1.04546e-06
-1.4527e-07
1.03577e-06
-1.71126e-07
1.02623e-06
-1.8769e-07
-2.18003e-07
1.01389e-06
1.08206e-06
-1.22396e-07
1.07384e-06
-1.19545e-07
1.06716e-06
-1.15567e-07
1.06105e-06
-1.19807e-07
1.05521e-06
-1.21339e-07
1.0482e-06
-1.32312e-07
1.04186e-06
-1.38929e-07
1.03158e-06
-1.60844e-07
1.02001e-06
-1.76123e-07
-2.02677e-07
1.00469e-06
1.09197e-06
-1.12399e-07
1.08267e-06
-1.1025e-07
1.07466e-06
-1.0756e-07
1.06613e-06
-1.11273e-07
1.05814e-06
-1.13349e-07
1.04897e-06
-1.23142e-07
1.04023e-06
-1.30189e-07
1.02728e-06
-1.47896e-07
1.01307e-06
-1.61909e-07
-1.849e-07
9.95293e-07
1.10024e-06
-1.01159e-07
1.08958e-06
-9.95864e-08
1.07957e-06
-9.75464e-08
1.06952e-06
-1.01223e-07
1.05956e-06
-1.03394e-07
1.04841e-06
-1.1199e-07
1.037e-06
-1.1878e-07
1.02283e-06
-1.33724e-07
1.00691e-06
-1.45989e-07
-1.65638e-07
9.87646e-07
1.10665e-06
-8.88049e-08
1.09477e-06
-8.77067e-08
1.08362e-06
-8.63983e-08
1.07193e-06
-8.95251e-08
1.06039e-06
-9.18576e-08
1.04764e-06
-9.92446e-08
1.03449e-06
-1.0563e-07
1.0187e-06
-1.17933e-07
1.00131e-06
-1.28593e-07
-1.45014e-07
9.80685e-07
1.11163e-06
-7.54936e-08
1.09877e-06
-7.48404e-08
1.08629e-06
-7.3918e-08
1.07343e-06
-7.66655e-08
1.06049e-06
-7.89156e-08
1.04642e-06
-8.5173e-08
1.0317e-06
-9.0911e-08
1.01484e-06
-1.01077e-07
9.96332e-07
-1.10086e-07
-1.2363e-07
9.74948e-07
1.11536e-06
-6.14015e-08
1.10154e-06
-6.10171e-08
1.08816e-06
-6.0546e-08
1.07425e-06
-6.27561e-08
1.06023e-06
-6.48932e-08
1.04513e-06
-7.00665e-08
1.0293e-06
-7.50859e-08
1.01147e-06
-8.32435e-08
9.92111e-07
-9.07301e-08
-1.01538e-07
9.7002e-07
1.11801e-06
-4.66338e-08
1.10347e-06
-4.64738e-08
1.08925e-06
-4.63306e-08
1.07455e-06
-4.80538e-08
1.05966e-06
-5.00097e-08
1.0437e-06
-5.41045e-08
1.02696e-06
-5.83413e-08
1.00833e-06
-6.46115e-08
9.88275e-07
-7.06795e-08
-7.88839e-08
9.65621e-07
1.11943e-06
-3.11815e-08
1.10404e-06
-3.1081e-08
1.08902e-06
-3.13201e-08
1.07348e-06
-3.25091e-08
1.05776e-06
-3.42885e-08
1.04083e-06
-3.71749e-08
1.02308e-06
-4.05887e-08
1.00341e-06
-4.49428e-08
9.82343e-07
-4.96144e-08
-5.51425e-08
9.58601e-07
1.10848e-06
-1.33647e-08
1.09101e-06
-1.36132e-08
1.07391e-06
-1.42172e-08
1.05642e-06
-1.50209e-08
1.03854e-06
-1.64075e-08
1.01946e-06
-1.80922e-08
9.99199e-07
-2.03311e-08
9.77024e-07
-2.27683e-08
9.5306e-07
-2.56503e-08
-2.83325e-08
9.2625e-07
8.8467e-07
8.71057e-07
8.5684e-07
8.41819e-07
8.25411e-07
8.07319e-07
7.86988e-07
7.6422e-07
7.3857e-07
7.10237e-07
-5.80101e-08
5.80101e-08
-2.02544e-07
1.44534e-07
-3.82616e-07
1.80072e-07
-5.53857e-07
1.71241e-07
-6.65969e-07
1.12112e-07
-6.92736e-07
2.67662e-08
-6.26754e-07
-6.59813e-08
-5.03304e-07
-1.2345e-07
-3.42682e-07
-1.60621e-07
-1.73416e-07
-1.69267e-07
-1.6198e-08
-1.57218e-07
1.19741e-07
-1.35939e-07
2.27372e-07
-1.07632e-07
3.07414e-07
-8.00413e-08
3.63907e-07
-5.64936e-08
4.01925e-07
-3.80171e-08
4.26282e-07
-2.43571e-08
4.41041e-07
-1.47596e-08
4.49384e-07
-8.34304e-09
4.53677e-07
-4.29304e-09
4.55561e-07
-1.88353e-09
4.561e-07
-5.38717e-10
4.5595e-07
1.49635e-10
4.55479e-07
4.71307e-10
4.549e-07
5.79009e-10
4.54314e-07
5.85969e-10
4.53775e-07
5.38752e-10
4.5329e-07
4.85019e-10
4.52879e-07
4.11311e-10
4.52517e-07
3.62057e-10
4.52225e-07
2.9182e-10
4.51971e-07
2.53839e-10
4.51776e-07
1.9487e-10
4.51614e-07
1.61564e-10
4.51501e-07
1.13394e-10
4.51421e-07
8.01203e-11
4.51379e-07
4.24366e-11
4.5138e-07
-1.17959e-12
4.51401e-07
-2.17502e-11
-8.80303e-11
-7.48634e-08
1.32873e-07
-2.48791e-07
3.18461e-07
-4.6321e-07
3.94491e-07
-6.38344e-07
3.46375e-07
-7.38148e-07
2.11916e-07
-7.43716e-07
3.23345e-08
-6.57169e-07
-1.52528e-07
-5.08828e-07
-2.71792e-07
-3.25053e-07
-3.44397e-07
-1.42251e-07
-3.52069e-07
3.33147e-08
-3.32783e-07
1.85423e-07
-2.88047e-07
3.09264e-07
-2.31473e-07
4.05467e-07
-1.76244e-07
4.78625e-07
-1.29652e-07
5.33803e-07
-9.31944e-08
5.75212e-07
-6.57664e-08
6.06088e-07
-4.56355e-08
6.2894e-07
-3.11956e-08
6.45745e-07
-2.10979e-08
6.58072e-07
-1.42108e-08
6.67144e-07
-9.61018e-09
6.73876e-07
-6.58264e-09
6.78942e-07
-4.59464e-09
6.82814e-07
-3.29251e-09
6.85812e-07
-2.41277e-09
6.88182e-07
-1.83069e-09
6.9006e-07
-1.39338e-09
6.91594e-07
-1.12241e-09
6.92825e-07
-8.69046e-10
6.93861e-07
-7.44111e-10
6.94703e-07
-5.87669e-10
6.95427e-07
-5.2987e-10
6.96027e-07
-4.38304e-10
6.9656e-07
-4.19152e-10
6.9701e-07
-3.69903e-10
6.97426e-07
-3.74319e-10
6.97795e-07
-3.696e-10
6.9815e-07
-3.77196e-10
-4.20009e-10
-2.09977e-07
3.42851e-07
-3.72417e-07
4.809e-07
-5.06698e-07
5.28773e-07
-6.60826e-07
5.00503e-07
-7.29371e-07
2.80462e-07
-6.99126e-07
2.08994e-09
-5.96938e-07
-2.54716e-07
-4.37348e-07
-4.31382e-07
-2.63633e-07
-5.18112e-07
-8.83753e-08
-5.27326e-07
7.56505e-08
-4.96809e-07
2.20123e-07
-4.32519e-07
3.37955e-07
-3.49306e-07
4.28478e-07
-2.66768e-07
4.96486e-07
-1.9766e-07
5.47899e-07
-1.44607e-07
5.87493e-07
-1.0536e-07
6.18434e-07
-7.65767e-08
6.42722e-07
-5.54831e-08
6.61738e-07
-4.01143e-08
6.76569e-07
-2.90414e-08
6.88113e-07
-2.11548e-08
6.97118e-07
-1.55868e-08
7.04175e-07
-1.16521e-08
7.09751e-07
-8.86878e-09
7.14185e-07
-6.84622e-09
7.17755e-07
-5.40124e-09
7.20633e-07
-4.27055e-09
7.22999e-07
-3.48863e-09
7.24923e-07
-2.79308e-09
7.26535e-07
-2.35657e-09
7.27859e-07
-1.91088e-09
7.28986e-07
-1.65715e-09
7.29919e-07
-1.37102e-09
7.30735e-07
-1.23523e-09
7.31413e-07
-1.04819e-09
7.32029e-07
-9.90244e-10
7.3255e-07
-8.90571e-10
7.33045e-07
-8.72501e-10
-8.53694e-10
-1.58503e-07
5.01354e-07
-2.40759e-07
5.63157e-07
-3.464e-07
6.34413e-07
-4.78197e-07
6.323e-07
-5.05636e-07
3.079e-07
-4.4961e-07
-5.39359e-08
-3.33737e-07
-3.70589e-07
-1.9053e-07
-5.74589e-07
-4.33e-08
-6.65342e-07
8.62245e-08
-6.5685e-07
2.03739e-07
-6.14324e-07
3.1054e-07
-5.39319e-07
4.01615e-07
-4.40381e-07
4.74776e-07
-3.39929e-07
5.31572e-07
-2.54455e-07
5.74743e-07
-1.87779e-07
6.07512e-07
-1.38129e-07
6.3282e-07
-1.01885e-07
6.5279e-07
-7.54527e-08
6.68771e-07
-5.60953e-08
6.81627e-07
-4.18971e-08
6.91973e-07
-3.15008e-08
7.00299e-07
-2.39129e-08
7.07006e-07
-1.83593e-08
7.12431e-07
-1.42936e-08
7.16828e-07
-1.1244e-08
7.20426e-07
-8.99859e-09
7.23363e-07
-7.20732e-09
7.258e-07
-5.9257e-09
7.27799e-07
-4.79239e-09
7.29482e-07
-4.03919e-09
7.3087e-07
-3.29905e-09
7.32055e-07
-2.84232e-09
7.33037e-07
-2.35271e-09
7.33896e-07
-2.09508e-09
7.34609e-07
-1.76094e-09
7.35256e-07
-1.63704e-09
7.35799e-07
-1.4338e-09
7.36315e-07
-1.38792e-09
-1.30022e-09
5.75442e-08
4.4381e-07
2.22917e-08
5.98409e-07
-8.15698e-08
7.38275e-07
-1.18421e-07
6.69152e-07
-7.24342e-08
2.61913e-07
3.4469e-08
-1.60839e-07
1.46376e-07
-4.82496e-07
2.42269e-07
-6.70482e-07
3.3511e-07
-7.58183e-07
4.06648e-07
-7.28389e-07
4.52011e-07
-6.59687e-07
4.8953e-07
-5.76838e-07
5.19764e-07
-4.70615e-07
5.45585e-07
-3.65749e-07
5.7282e-07
-2.81691e-07
6.01033e-07
-2.15992e-07
6.26689e-07
-1.63786e-07
6.47756e-07
-1.22951e-07
6.64315e-07
-9.20112e-08
6.77355e-07
-6.91362e-08
6.87829e-07
-5.23704e-08
6.96387e-07
-4.00588e-08
7.03445e-07
-3.09712e-08
7.09283e-07
-2.41967e-08
7.14118e-07
-1.91287e-08
7.18116e-07
-1.5242e-08
7.21437e-07
-1.23201e-08
7.24182e-07
-9.95221e-09
7.2648e-07
-8.224e-09
7.28379e-07
-6.69149e-09
7.29986e-07
-5.64586e-09
7.31316e-07
-4.62947e-09
7.32456e-07
-3.98217e-09
7.33402e-07
-3.29824e-09
7.34232e-07
-2.92492e-09
7.3492e-07
-2.44907e-09
7.35545e-07
-2.26202e-09
7.36069e-07
-1.95838e-09
7.36567e-07
-1.88576e-09
-1.73e-09
3.08724e-07
1.35085e-07
3.39792e-07
5.67342e-07
3.28452e-07
7.49614e-07
3.13666e-07
6.83938e-07
3.8198e-07
1.93599e-07
4.95341e-07
-2.742e-07
5.84085e-07
-5.7124e-07
6.24095e-07
-7.10492e-07
6.54187e-07
-7.88275e-07
6.85198e-07
-7.594e-07
6.92858e-07
-6.67347e-07
6.93294e-07
-5.77274e-07
6.88113e-07
-4.65434e-07
6.68707e-07
-3.46343e-07
6.48662e-07
-2.61645e-07
6.4236e-07
-2.0969e-07
6.49195e-07
-1.70621e-07
6.61841e-07
-1.35597e-07
6.74664e-07
-1.04834e-07
6.85517e-07
-7.99889e-08
6.94255e-07
-6.11091e-08
7.01335e-07
-4.71391e-08
7.0719e-07
-3.68259e-08
7.12099e-07
-2.91057e-08
7.16242e-07
-2.32721e-08
7.19734e-07
-1.87338e-08
7.22684e-07
-1.52702e-08
7.25156e-07
-1.24242e-08
7.27249e-07
-1.03166e-08
7.28993e-07
-8.4352e-09
7.30478e-07
-7.13085e-09
7.31713e-07
-5.86476e-09
7.32776e-07
-5.04485e-09
7.33659e-07
-4.18186e-09
7.34436e-07
-3.70206e-09
7.35082e-07
-3.09442e-09
7.35668e-07
-2.84869e-09
7.36161e-07
-2.45099e-09
7.36629e-07
-2.35335e-09
-2.13317e-09
8.38998e-10
1.34246e-07
2.70131e-07
2.9805e-07
4.11353e-07
6.08392e-07
5.52634e-07
5.42657e-07
6.7033e-07
7.59025e-08
7.64842e-07
-3.68711e-07
8.33789e-07
-6.40187e-07
8.28695e-07
-7.05399e-07
7.83582e-07
-7.43162e-07
7.73119e-07
-7.48937e-07
7.60973e-07
-6.55201e-07
7.3972e-07
-5.56021e-07
7.41036e-07
-4.6675e-07
7.46053e-07
-3.51361e-07
7.30865e-07
-2.46457e-07
7.05935e-07
-1.8476e-07
6.89029e-07
-1.53715e-07
6.84525e-07
-1.31092e-07
6.87859e-07
-1.08169e-07
6.94069e-07
-8.61983e-08
7.00444e-07
-6.74841e-08
7.06084e-07
-5.27793e-08
7.109e-07
-4.16425e-08
7.15009e-07
-3.32141e-08
7.18529e-07
-2.67928e-08
7.2154e-07
-2.17445e-08
7.24118e-07
-1.78484e-08
7.26303e-07
-1.46091e-08
7.2817e-07
-1.21834e-08
7.29737e-07
-1.00019e-08
7.31079e-07
-8.47293e-09
7.322e-07
-6.98591e-09
7.33168e-07
-6.01289e-09
7.33975e-07
-4.9889e-09
7.34686e-07
-4.41331e-09
7.35278e-07
-3.68606e-09
7.35816e-07
-3.38711e-09
7.36269e-07
-2.9033e-09
7.36698e-07
-2.7829e-09
-2.50302e-09
7.18537e-07
4.03424e-07
6.78186e-07
3.384e-07
7.59193e-07
5.27385e-07
8.90478e-07
4.11372e-07
9.59541e-07
6.83975e-09
9.84483e-07
-3.93653e-07
1.02784e-06
-6.83546e-07
1.0282e-06
-7.05759e-07
9.29533e-07
-6.44493e-07
8.50035e-07
-6.69439e-07
8.11198e-07
-6.16364e-07
7.48863e-07
-4.93686e-07
7.02114e-07
-4.2e-07
7.10612e-07
-3.5986e-07
7.42564e-07
-2.78408e-07
7.60658e-07
-2.02854e-07
7.59584e-07
-1.52642e-07
7.51199e-07
-1.22707e-07
7.45074e-07
-1.02044e-07
7.43494e-07
-8.46187e-08
7.45095e-07
-6.90845e-08
7.48102e-07
-5.57868e-08
7.51421e-07
-4.49617e-08
7.54578e-07
-3.63706e-08
7.57431e-07
-2.96463e-08
7.59955e-07
-2.42679e-08
7.62172e-07
-2.00658e-08
7.6409e-07
-1.65269e-08
7.65757e-07
-1.38501e-08
7.67174e-07
-1.1419e-08
7.684e-07
-9.69952e-09
7.69433e-07
-8.01822e-09
7.70329e-07
-6.90939e-09
7.7108e-07
-5.73941e-09
7.71743e-07
-5.07671e-09
7.72296e-07
-4.23922e-09
7.728e-07
-3.89125e-09
7.73224e-07
-3.32717e-09
7.73627e-07
-3.18567e-09
-2.84941e-09
1.03638e-06
4.77486e-07
1.03778e-06
3.36999e-07
1.13075e-06
4.34416e-07
1.25955e-06
2.82571e-07
1.3131e-06
-4.67073e-08
1.24299e-06
-3.23541e-07
1.13937e-06
-5.79924e-07
1.09846e-06
-6.64849e-07
1.03116e-06
-5.7719e-07
9.06485e-07
-5.44768e-07
8.12417e-07
-5.22296e-07
7.37073e-07
-4.18342e-07
6.57614e-07
-3.40542e-07
6.18287e-07
-3.20532e-07
6.36838e-07
-2.9696e-07
6.83835e-07
-2.49851e-07
7.25663e-07
-1.9447e-07
7.48621e-07
-1.45664e-07
7.55976e-07
-1.09399e-07
7.56099e-07
-8.4742e-08
7.54966e-07
-6.79508e-08
7.54907e-07
-5.57286e-08
7.56081e-07
-4.61354e-08
7.5797e-07
-3.82594e-08
7.60088e-07
-3.17643e-08
7.62136e-07
-2.63164e-08
7.63996e-07
-2.19252e-08
7.65618e-07
-1.81493e-08
7.6703e-07
-1.52623e-08
7.68232e-07
-1.26202e-08
7.69273e-07
-1.07404e-08
7.7015e-07
-8.89589e-09
7.70914e-07
-7.67338e-09
7.71555e-07
-6.38054e-09
7.72123e-07
-5.6447e-09
7.72598e-07
-4.71379e-09
7.73031e-07
-4.3244e-09
7.73396e-07
-3.69168e-09
7.73742e-07
-3.53224e-09
-3.14714e-09
1.13627e-06
4.22283e-07
1.21095e-06
2.62313e-07
1.34068e-06
3.04692e-07
1.4506e-06
1.72652e-07
1.45697e-06
-5.30824e-08
1.37645e-06
-2.43024e-07
1.2043e-06
-4.07769e-07
1.06551e-06
-5.26064e-07
1.03035e-06
-5.42033e-07
9.66928e-07
-4.81342e-07
8.57431e-07
-4.12799e-07
7.84482e-07
-3.45393e-07
7.42134e-07
-2.98194e-07
6.9907e-07
-2.77468e-07
6.66233e-07
-2.64123e-07
6.61938e-07
-2.45556e-07
6.83112e-07
-2.15643e-07
7.12718e-07
-1.75271e-07
7.37033e-07
-1.33714e-07
7.51641e-07
-9.93508e-08
7.5868e-07
-7.49892e-08
7.61524e-07
-5.85732e-08
7.62692e-07
-4.73035e-08
7.63475e-07
-3.90422e-08
7.64341e-07
-3.26301e-08
7.65352e-07
-2.73276e-08
7.66445e-07
-2.30179e-08
7.67522e-07
-1.92259e-08
7.68537e-07
-1.62779e-08
7.69444e-07
-1.35269e-08
7.70255e-07
-1.15511e-08
7.70951e-07
-9.59241e-09
7.71565e-07
-8.28727e-09
7.72084e-07
-6.89977e-09
7.72547e-07
-6.10723e-09
7.72935e-07
-5.1017e-09
7.7329e-07
-4.67934e-09
7.73589e-07
-3.99085e-09
7.73873e-07
-3.81693e-09
-3.3915e-09
1.16419e-06
3.38182e-07
1.21115e-06
2.15351e-07
1.32509e-06
1.90745e-07
1.3871e-06
1.10642e-07
1.36594e-06
-3.19134e-08
1.30945e-06
-1.86535e-07
1.19849e-06
-2.96811e-07
1.06803e-06
-3.95604e-07
9.875e-07
-4.61505e-07
9.29355e-07
-4.23197e-07
8.55154e-07
-3.38598e-07
8.17099e-07
-3.07337e-07
8.40075e-07
-3.2117e-07
8.75475e-07
-3.12868e-07
8.75648e-07
-2.64296e-07
8.39246e-07
-2.09154e-07
7.93749e-07
-1.70147e-07
7.61823e-07
-1.43344e-07
7.48728e-07
-1.20619e-07
7.47664e-07