/*--------------------------------*- C++ -*----------------------------------*\
| =========                 |                                                 |
| \\      /  F ield         | OpenFOAM: The Open Source CFD Toolbox           |
|  \\    /   O peration     | Version:  2112                                  |
|   \\  /    A nd           | Website:  www.openfoam.com                      |
|    \\/     M anipulation  |                                                 |
\*---------------------------------------------------------------------------*/
FoamFile
{
    version     2.0;
    format      ascii;
    arch        "LSB;label=32;scalar=64";
    class       volVectorField;
    location    "0.15";
    object      U;
}
// * * * * * * * * * * * * * * * * * * * * * * * * * * * * * * * * * * * * * //

dimensions      [0 1 -1 0 0 0 0];

internalField   nonuniform List<vector> 
1880
(
(0.098989 0.000613075 0)
(0.0984393 0.0011336 0)
(0.0974479 0.00129596 0)
(0.0958244 0.00132706 0)
(0.0942055 0.00136992 0)
(0.0924756 0.00140778 0)
(0.090534 0.0013626 0)
(0.088915 0.00130681 0)
(0.087465 0.00138473 0)
(0.0856331 0.00150841 0)
(0.0835394 0.00149046 0)
(0.0816757 0.00128245 0)
(0.0800753 0.00103156 0)
(0.0787602 0.000750436 0)
(0.0775706 0.000580025 0)
(0.0768017 0.000363356 0)
(0.0759756 0.000387833 0)
(0.0755315 0.000228034 0)
(0.0746776 0.000436521 0)
(0.0742356 0.000247344 0)
(0.0731588 0.000603324 0)
(0.0725033 0.000371898 0)
(0.071005 0.000868599 0)
(0.0699542 0.000674992 0)
(0.0676974 0.00116964 0)
(0.0660001 0.00163812 0)
(0.0621055 0.00100073 0)
(0.0599678 0.0048909 0)
(0.0504365 -0.000389354 0)
(0.0510973 0.0137883 0)
(0.0999582 0.000713865 0)
(0.100334 0.00137973 0)
(0.100721 0.0016352 0)
(0.100875 0.00173146 0)
(0.101222 0.00183618 0)
(0.101403 0.0019633 0)
(0.10116 0.00198881 0)
(0.101074 0.00193374 0)
(0.10123 0.00200284 0)
(0.101218 0.00218766 0)
(0.100944 0.00230643 0)
(0.100831 0.00218707 0)
(0.100574 0.00199617 0)
(0.100479 0.00160835 0)
(0.0997346 0.00145681 0)
(0.0997751 0.000966122 0)
(0.0985759 0.00120613 0)
(0.0991114 0.000621162 0)
(0.0971799 0.00139712 0)
(0.098222 0.000638144 0)
(0.0955204 0.00180081 0)
(0.096801 0.0010748 0)
(0.0934442 0.00235974 0)
(0.0946038 0.00190482 0)
(0.0905245 0.00352477 0)
(0.0909732 0.00306964 0)
(0.0869559 0.00605567 0)
(0.0837678 0.00521569 0)
(0.0837126 0.0113079 0)
(0.0707359 0.0102064 0)
(0.0999538 0.000255064 0)
(0.100244 0.00065644 0)
(0.10057 0.000948882 0)
(0.100728 0.00112852 0)
(0.101192 0.00124981 0)
(0.101545 0.00138058 0)
(0.101462 0.00147026 0)
(0.101544 0.00150442 0)
(0.101913 0.00157811 0)
(0.102132 0.0017062 0)
(0.102133 0.00180555 0)
(0.102279 0.00178171 0)
(0.102351 0.00170325 0)
(0.1024 0.0015345 0)
(0.10193 0.00148058 0)
(0.101844 0.0012686 0)
(0.100982 0.00147839 0)
(0.101137 0.00116899 0)
(0.0997795 0.00188061 0)
(0.100183 0.00129526 0)
(0.0985017 0.00258817 0)
(0.0986296 0.00192151 0)
(0.0973659 0.00331856 0)
(0.0960437 0.00355384 0)
(0.0961614 0.00422895 0)
(0.092524 0.0061265 0)
(0.0940057 0.00697861 0)
(0.0887384 0.0089733 0)
(0.0900679 0.0136341 0)
(0.085503 0.0142072 0)
(0.0999486 0.000231068 0)
(0.100143 0.000628519 0)
(0.10035 0.000941519 0)
(0.100372 0.00114362 0)
(0.10078 0.00128013 0)
(0.101145 0.00141771 0)
(0.101057 0.00152851 0)
(0.101129 0.00157954 0)
(0.101508 0.001631 0)
(0.101743 0.00172255 0)
(0.101721 0.00185111 0)
(0.101874 0.00191066 0)
(0.101959 0.00196224 0)
(0.102107 0.00187522 0)
(0.101703 0.00192397 0)
(0.101762 0.00172488 0)
(0.101002 0.00198909 0)
(0.101302 0.00166985 0)
(0.100025 0.0024231 0)
(0.100661 0.00184365 0)
(0.0987873 0.00331421 0)
(0.0997426 0.00239977 0)
(0.0973999 0.00465468 0)
(0.0982387 0.00362487 0)
(0.0960405 0.00660283 0)
(0.0958164 0.00586816 0)
(0.0948369 0.00959438 0)
(0.0927118 0.0099 0)
(0.093381 0.014268 0)
(0.0909256 0.0164893 0)
(0.0999457 0.000143695 0)
(0.1001 0.00041249 0)
(0.100255 0.000642643 0)
(0.10021 0.000815083 0)
(0.100578 0.000954087 0)
(0.100938 0.00108855 0)
(0.100846 0.00120117 0)
(0.100911 0.00127139 0)
(0.101283 0.00133025 0)
(0.101503 0.00141302 0)
(0.101446 0.00153541 0)
(0.101585 0.00164379 0)
(0.101686 0.00175572 0)
(0.101903 0.00179568 0)
(0.101577 0.00190676 0)
(0.101725 0.00188152 0)
(0.101091 0.00213479 0)
(0.101396 0.00204841 0)
(0.100422 0.00264099 0)
(0.100763 0.0024836 0)
(0.0996804 0.00346577 0)
(0.0997435 0.00350328 0)
(0.0989452 0.00448873 0)
(0.0983581 0.00547995 0)
(0.0980353 0.0060006 0)
(0.0969141 0.00815709 0)
(0.0967459 0.00942769 0)
(0.0958343 0.010851 0)
(0.0954897 0.0157535 0)
(0.0952441 0.0152425 0)
(0.0999451 0.00011866 0)
(0.100084 0.000352488 0)
(0.100216 0.000560634 0)
(0.100129 0.000729514 0)
(0.100458 0.000875911 0)
(0.1008 0.0010139 0)
(0.100702 0.0011321 0)
(0.100762 0.00121591 0)
(0.101127 0.00128349 0)
(0.10134 0.00136743 0)
(0.101267 0.00149419 0)
(0.101403 0.00163281 0)
(0.101506 0.00178234 0)
(0.101767 0.0018856 0)
(0.101485 0.00202801 0)
(0.101722 0.00208328 0)
(0.101157 0.00233022 0)
(0.101577 0.00235414 0)
(0.100678 0.0029004 0)
(0.101181 0.00285901 0)
(0.100118 0.00386921 0)
(0.100504 0.00379617 0)
(0.0995972 0.00526274 0)
(0.0995229 0.00545016 0)
(0.099214 0.00717646 0)
(0.0983018 0.0080953 0)
(0.0990451 0.0099461 0)
(0.0974729 0.0119303 0)
(0.098727 0.0141809 0)
(0.0982317 0.0167818 0)
(0.0999448 8.97669e-05 0)
(0.100071 0.000272236 0)
(0.100184 0.00043535 0)
(0.100071 0.000569395 0)
(0.100377 0.000694823 0)
(0.100707 0.000821863 0)
(0.100604 0.000935533 0)
(0.100664 0.00102141 0)
(0.101028 0.00109064 0)
(0.101243 0.00117646 0)
(0.101173 0.00130274 0)
(0.101317 0.0014639 0)
(0.101438 0.00163772 0)
(0.101733 0.00180732 0)
(0.101507 0.0019795 0)
(0.101791 0.0021383 0)
(0.101336 0.00237145 0)
(0.101768 0.00255654 0)
(0.101089 0.00296833 0)
(0.101485 0.00324321 0)
(0.100843 0.00385754 0)
(0.100966 0.00442592 0)
(0.100644 0.00507648 0)
(0.100397 0.00626871 0)
(0.100399 0.00693878 0)
(0.100078 0.00859961 0)
(0.100211 0.0101738 0)
(0.100242 0.0112233 0)
(0.100569 0.0148815 0)
(0.100941 0.0151782 0)
(0.0999447 6.90313e-05 0)
(0.100065 0.000214302 0)
(0.100169 0.000347859 0)
(0.100045 0.000460065 0)
(0.100338 0.000570915 0)
(0.100659 0.000691003 0)
(0.100555 0.000804564 0)
(0.100618 0.000895338 0)
(0.100985 0.000968379 0)
(0.101203 0.00105685 0)
(0.101139 0.0011815 0)
(0.101292 0.00135389 0)
(0.101436 0.00153861 0)
(0.101756 0.00174805 0)
(0.101585 0.00193688 0)
(0.101909 0.00216003 0)
(0.101543 0.00238949 0)
(0.102019 0.00265954 0)
(0.101467 0.00302973 0)
(0.10191 0.00339838 0)
(0.101432 0.00396274 0)
(0.101613 0.00455214 0)
(0.101523 0.00525669 0)
(0.101284 0.00627114 0)
(0.101732 0.00707003 0)
(0.10122 0.00863609 0)
(0.102089 0.00964528 0)
(0.101822 0.0116576 0)
(0.102735 0.013235 0)
(0.103335 0.0152349 0)
(0.0999447 5.07369e-05 0)
(0.100062 0.000161014 0)
(0.100162 0.000265113 0)
(0.100032 0.000351956 0)
(0.10032 0.000440707 0)
(0.100637 0.000545749 0)
(0.100534 0.000652126 0)
(0.100601 0.000740908 0)
(0.100975 0.000811764 0)
(0.101201 0.000898564 0)
(0.101151 0.00101875 0)
(0.101315 0.00119678 0)
(0.101489 0.00138729 0)
(0.101828 0.00162725 0)
(0.101719 0.00182871 0)
(0.102061 0.00210603 0)
(0.101802 0.00232716 0)
(0.102281 0.00268152 0)
(0.101892 0.00297969 0)
(0.10232 0.00349296 0)
(0.102051 0.00387409 0)
(0.10224 0.00468314 0)
(0.102337 0.00511814 0)
(0.102268 0.00629111 0)
(0.10269 0.00695437 0)
(0.102719 0.00826502 0)
(0.103225 0.00958356 0)
(0.103702 0.010685 0)
(0.10443 0.0128858 0)
(0.105172 0.0139222 0)
(0.0999447 3.3366e-05 0)
(0.100062 0.000109738 0)
(0.100161 0.000184688 0)
(0.100031 0.000246355 0)
(0.100318 0.000312277 0)
(0.100636 0.000400648 0)
(0.100539 0.000498775 0)
(0.100614 0.000585384 0)
(0.101 0.000654826 0)
(0.101235 0.000739534 0)
(0.101202 0.000854156 0)
(0.101377 0.00103155 0)
(0.101585 0.00122288 0)
(0.101938 0.00147976 0)
(0.101891 0.0016914 0)
(0.102245 0.00200038 0)
(0.102084 0.00222361 0)
(0.102567 0.00261832 0)
(0.102314 0.00288948 0)
(0.102748 0.00344864 0)
(0.102638 0.00376716 0)
(0.102854 0.00460272 0)
(0.10313 0.00496565 0)
(0.103103 0.00610684 0)
(0.103741 0.00664249 0)
(0.103808 0.00799882 0)
(0.104548 0.00882597 0)
(0.105094 0.0103467 0)
(0.105944 0.0115564 0)
(0.106894 0.0130704 0)
(0.0999447 1.60928e-05 0)
(0.100063 5.81724e-05 0)
(0.100165 0.000103316 0)
(0.100039 0.000139137 0)
(0.100332 0.000180815 0)
(0.100656 0.000249786 0)
(0.100569 0.000336583 0)
(0.100654 0.000417467 0)
(0.101052 0.000481991 0)
(0.101299 0.000560563 0)
(0.101286 0.000666161 0)
(0.101473 0.000837106 0)
(0.101715 0.001025 0)
(0.10208 0.00128987 0)
(0.102094 0.00150947 0)
(0.102451 0.00183903 0)
(0.102387 0.00206541 0)
(0.102863 0.00248613 0)
(0.102737 0.00273234 0)
(0.103171 0.00332178 0)
(0.103191 0.00357615 0)
(0.103461 0.00442223 0)
(0.10382 0.00472156 0)
(0.103951 0.00576665 0)
(0.104576 0.00631489 0)
(0.104915 0.00739341 0)
(0.105582 0.008307 0)
(0.106364 0.00940888 0)
(0.107262 0.0106353 0)
(0.108243 0.0118159 0)
(0.0999447 -2.12955e-06 0)
(0.100066 3.97942e-06 0)
(0.100174 1.84338e-05 0)
(0.100056 2.81112e-05 0)
(0.100357 4.62247e-05 0)
(0.100693 9.74932e-05 0)
(0.100618 0.000173797 0)
(0.100715 0.000250096 0)
(0.101129 0.000311621 0)
(0.101391 0.000384474 0)
(0.1014 0.000480304 0)
(0.1016 0.000640401 0)
(0.101878 0.000821508 0)
(0.102253 0.00108498 0)
(0.102325 0.00130903 0)
(0.102681 0.00164418 0)
(0.102703 0.00187559 0)
(0.103166 0.00229878 0)
(0.103151 0.00253394 0)
(0.103583 0.0031146 0)
(0.103713 0.00333488 0)
(0.104022 0.00414429 0)
(0.104465 0.00439595 0)
(0.104688 0.00536056 0)
(0.10537 0.00581471 0)
(0.105818 0.00683338 0)
(0.106547 0.00749478 0)
(0.107413 0.0086259 0)
(0.108358 0.00945401 0)
(0.109411 0.0106097 0)
(0.0999447 -2.28665e-05 0)
(0.100072 -5.81093e-05 0)
(0.10019 -8.03652e-05 0)
(0.100086 -0.000102813 0)
(0.100405 -0.000114523 0)
(0.100757 -8.87169e-05 0)
(0.100697 -3.11742e-05 0)
(0.100808 3.25242e-05 0)
(0.10124 8.44396e-05 0)
(0.101516 0.000146194 0)
(0.101547 0.000228213 0)
(0.101758 0.000373906 0)
(0.10207 0.000549876 0)
(0.10245 0.000813519 0)
(0.102574 0.00104881 0)
(0.102922 0.00138964 0)
(0.10302 0.0016336 0)
(0.103468 0.00205149 0)
(0.103546 0.00228542 0)
(0.103975 0.00283853 0)
(0.10419 0.00304187 0)
(0.104545 0.00378374 0)
(0.10503 0.00401707 0)
(0.105361 0.00485287 0)
(0.106045 0.00528478 0)
(0.106619 0.00612616 0)
(0.107362 0.00672607 0)
(0.108294 0.00765967 0)
(0.109283 0.00835122 0)
(0.110372 0.00932613 0)
(0.0999448 -4.61322e-05 0)
(0.100078 -0.000124648 0)
(0.100209 -0.000182457 0)
(0.100122 -0.000230905 0)
(0.100461 -0.000262416 0)
(0.100832 -0.000252884 0)
(0.10079 -0.00020498 0)
(0.100918 -0.000144514 0)
(0.101371 -9.31841e-05 0)
(0.101669 -3.6547e-05 0)
(0.101728 3.60128e-05 0)
(0.101959 0.000170983 0)
(0.102308 0.00034016 0)
(0.102697 0.00059416 0)
(0.102863 0.000829259 0)
(0.103199 0.0011579 0)
(0.103354 0.0014022 0)
(0.103779 0.00179439 0)
(0.10393 0.00202154 0)
(0.104349 0.00252542 0)
(0.104628 0.00271427 0)
(0.105016 0.00337199 0)
(0.105534 0.00358169 0)
(0.105944 0.00430306 0)
(0.106638 0.00467331 0)
(0.107288 0.00540209 0)
(0.10806 0.00587075 0)
(0.109023 0.00669688 0)
(0.110042 0.00720856 0)
(0.111149 0.00804779 0)
(0.0999452 -8.07239e-05 0)
(0.100094 -0.000223871 0)
(0.10025 -0.000339088 0)
(0.100196 -0.000431599 0)
(0.100568 -0.000493459 0)
(0.100964 -0.000508763 0)
(0.100942 -0.000481756 0)
(0.101087 -0.000434198 0)
(0.101561 -0.000391391 0)
(0.10188 -0.000350021 0)
(0.101967 -0.000297967 0)
(0.102211 -0.000184006 0)
(0.10258 -2.3628e-05 0)
(0.10296 0.000227855 0)
(0.10315 0.000481463 0)
(0.103464 0.000820391 0)
(0.103662 0.00108894 0)
(0.104062 0.00147047 0)
(0.10427 0.00170505 0)
(0.10468 0.00216016 0)
(0.105009 0.00234351 0)
(0.105427 0.00291035 0)
(0.105964 0.00310389 0)
(0.106441 0.00370368 0)
(0.107137 0.00402744 0)
(0.107844 0.00462395 0)
(0.108639 0.00500851 0)
(0.109615 0.00568873 0)
(0.110651 0.00608358 0)
(0.111778 0.00676624 0)
(0.0999457 -0.000109961 0)
(0.100111 -0.000298852 0)
(0.100295 -0.000447881 0)
(0.100289 -0.000554135 0)
(0.100706 -0.00062015 0)
(0.101129 -0.000649118 0)
(0.101125 -0.000636619 0)
(0.101291 -0.000593703 0)
(0.10179 -0.000555226 0)
(0.102134 -0.000527562 0)
(0.102255 -0.000488509 0)
(0.102527 -0.000380664 0)
(0.102933 -0.000209891 0)
(0.103322 4.915e-05 0)
(0.103536 0.000311465 0)
(0.103821 0.000628874 0)
(0.104033 0.000882901 0)
(0.104386 0.0012156 0)
(0.104618 0.00142665 0)
(0.105002 0.0018077 0)
(0.105356 0.00196808 0)
(0.105788 0.00243338 0)
(0.106332 0.00259865 0)
(0.106856 0.00308245 0)
(0.107552 0.00334777 0)
(0.108294 0.00382806 0)
(0.10911 0.00412403 0)
(0.110084 0.00467421 0)
(0.111134 0.00496306 0)
(0.11226 0.00550488 0)
(0.0999486 -0.000203895 0)
(0.100156 -0.000536775 0)
(0.100394 -0.000783431 0)
(0.10046 -0.000929978 0)
(0.100924 -0.00100508 0)
(0.101362 -0.00105556 0)
(0.101374 -0.00106248 0)
(0.10156 -0.00101902 0)
(0.102082 -0.000983994 0)
(0.102463 -0.000983408 0)
(0.102641 -0.000971373 0)
(0.102953 -0.000868196 0)
(0.103372 -0.000674748 0)
(0.103719 -0.000391827 0)
(0.10389 -9.59734e-05 0)
(0.104103 0.000246004 0)
(0.104302 0.000536378 0)
(0.104613 0.000860788 0)
(0.104867 0.00107778 0)
(0.105236 0.00140351 0)
(0.105617 0.00155269 0)
(0.106066 0.00192369 0)
(0.106618 0.00206145 0)
(0.107179 0.00243708 0)
(0.107878 0.00264368 0)
(0.108639 0.00301365 0)
(0.109476 0.00323152 0)
(0.110438 0.00365443 0)
(0.111502 0.00385554 0)
(0.112614 0.00426217 0)
(0.0999539 -0.000235119 0)
(0.100258 -0.000589373 0)
(0.100621 -0.000833612 0)
(0.100828 -0.000972319 0)
(0.101353 -0.00104727 0)
(0.101786 -0.00111222 0)
(0.101811 -0.0011253 0)
(0.102021 -0.00108891 0)
(0.102545 -0.00109465 0)
(0.102929 -0.0011461 0)
(0.103137 -0.00113806 0)
(0.103475 -0.000988941 0)
(0.103892 -0.000734964 0)
(0.104198 -0.000420293 0)
(0.104337 -0.000106918 0)
(0.104497 0.000205527 0)
(0.104649 0.000451594 0)
(0.104883 0.000685223 0)
(0.105104 0.000846049 0)
(0.105433 0.00106598 0)
(0.105805 0.00117085 0)
(0.106255 0.00142894 0)
(0.106802 0.00152148 0)
(0.10739 0.00178747 0)
(0.108088 0.00193053 0)
(0.108864 0.00219056 0)
(0.109723 0.002337 0)
(0.110664 0.00263712 0)
(0.111757 0.00276157 0)
(0.112835 0.00304193 0)
(0.0999583 -0.000700248 0)
(0.10035 -0.00133452 0)
(0.100774 -0.00155755 0)
(0.100982 -0.0016258 0)
(0.1014 -0.00169836 0)
(0.101672 -0.00178066 0)
(0.101553 -0.00175571 0)
(0.101613 -0.00165449 0)
(0.101954 -0.00167136 0)
(0.102133 -0.00180111 0)
(0.102127 -0.00183375 0)
(0.102235 -0.00165049 0)
(0.102434 -0.00131546 0)
(0.102583 -0.000905318 0)
(0.102641 -0.000491491 0)
(0.102779 -0.000121786 0)
(0.102948 0.000154779 0)
(0.10327 0.000365158 0)
(0.103536 0.000510073 0)
(0.104002 0.000652656 0)
(0.104366 0.000733836 0)
(0.104989 0.000881111 0)
(0.105475 0.000944579 0)
(0.106258 0.00109301 0)
(0.106874 0.00118756 0)
(0.107845 0.00132802 0)
(0.108619 0.00142193 0)
(0.109749 0.00159122 0)
(0.110748 0.0016562 0)
(0.112022 0.00180719 0)
(0.0989891 -0.000609416 0)
(0.0984571 -0.00112145 0)
(0.0975072 -0.00127465 0)
(0.095943 -0.00129702 0)
(0.094401 -0.00132871 0)
(0.0927764 -0.00135248 0)
(0.090974 -0.00129355 0)
(0.0895189 -0.00122282 0)
(0.0882712 -0.00127877 0)
(0.0866835 -0.00138278 0)
(0.0848826 -0.00134102 0)
(0.0833385 -0.00112153 0)
(0.0821564 -0.000835275 0)
(0.0812623 -0.000556433 0)
(0.0806588 -0.000314063 0)
(0.0804005 -0.000117041 0)
(0.0803892 1.92668e-05 0)
(0.0805891 0.000111844 0)
(0.0808483 0.000169595 0)
(0.0812828 0.000217882 0)
(0.0816814 0.00025154 0)
(0.0823012 0.000292746 0)
(0.0828092 0.000319097 0)
(0.083601 0.000362457 0)
(0.0842201 0.00039516 0)
(0.085207 0.000431281 0)
(0.0859363 0.000471547 0)
(0.0871174 0.000506719 0)
(0.0879856 0.000529783 0)
(0.0893292 0.000559778 0)
(0.0247699 0.0027609 0)
(0.0723936 0.0232236 0)
(0.0523086 0.0288744 0)
(0.0716875 0.0296308 9.29652e-22)
(0.070295 0.0239436 8.31554e-22)
(0.108169 0.0504906 0)
(0.0560008 0.0276939 1.17079e-22)
(0.108694 0.0381473 9.55566e-24)
(0.0975713 0.0446303 5.33746e-22)
(0.143327 0.0591198 0)
(0.0802842 0.024391 0)
(0.0795993 0.0251625 0)
(0.0861651 0.0389064 0)
(0.0979187 0.039983 0)
(0.0989078 0.0255613 0)
(0.106923 0.0623144 2.26795e-22)
(0.112443 0.0618755 -1.92171e-24)
(0.114577 0.0319228 -9.94633e-23)
(0.125661 0.0370939 -4.84951e-22)
(0.15655 0.0728823 -5.47044e-22)
(0.0846421 0.0233446 0)
(0.0884785 0.0249166 0)
(0.0913072 0.0307968 0)
(0.10463 0.0383068 0)
(0.0999966 0.0286152 0)
(0.100103 0.0345033 -2.268e-22)
(0.125955 0.0617124 1.92187e-24)
(0.132661 0.0345355 9.94658e-23)
(0.126013 0.0261947 2.70402e-22)
(0.141229 0.049672 5.47065e-22)
(0.0907009 0.0219636 -4.73537e-22)
(0.0949303 0.0256222 0)
(0.097077 0.0294348 -3.75338e-22)
(0.103397 0.0331845 -3.04816e-22)
(0.110336 0.0338803 -2.38621e-22)
(0.105906 0.0361804 0)
(0.122437 0.0452071 0)
(0.133765 0.0349577 1.12195e-22)
(0.128686 0.0348513 2.49462e-22)
(0.136473 0.044681 4.22466e-22)
(0.0951101 0.0225061 4.7354e-22)
(0.0978034 0.0234079 0)
(0.101706 0.0273737 3.7534e-22)
(0.106223 0.0289653 3.04817e-22)
(0.110201 0.0303739 2.3862e-22)
(0.112681 0.0300293 0)
(0.122891 0.0399143 0)
(0.130879 0.0289223 -1.12204e-22)
(0.129422 0.0260308 -2.49462e-22)
(0.139743 0.0304859 -4.22465e-22)
(0.0984099 0.020439 0)
(0.101937 0.0219346 -3.53586e-22)
(0.104578 0.0252461 0)
(0.10849 0.0271733 -2.46876e-22)
(0.113541 0.0290123 0)
(0.115828 0.0287203 0)
(0.123065 0.0323314 0)
(0.131549 0.0284664 -1.06598e-22)
(0.132616 0.0289271 0)
(0.137172 0.0279194 0)
(0.101789 0.0195491 3.54358e-22)
(0.104096 0.0205753 6.76375e-22)
(0.107004 0.0232107 2.78373e-22)
(0.110842 0.0236702 2.46877e-22)
(0.114794 0.0254639 0)
(0.118371 0.0251702 -9.30217e-23)
(0.124186 0.0284151 0)
(0.129766 0.0226992 1.06598e-22)
(0.132537 0.0224055 0)
(0.138272 0.0212302 0)
(0.104096 0.0177987 -3.54359e-22)
(0.106577 0.0186643 -3.22788e-22)
(0.109522 0.0209017 -2.78374e-22)
(0.112665 0.02191 0)
(0.116504 0.0231378 0)
(0.119722 0.0225706 9.3022e-23)
(0.124896 0.0240863 0)
(0.130063 0.0218181 0)
(0.132603 0.0211652 0)
(0.136567 0.0184203 0)
(0.106415 0.0162876 0)
(0.10844 0.0172339 -2.7364e-22)
(0.110982 0.0189145 0)
(0.11412 0.0190968 -1.89019e-22)
(0.117616 0.0202662 0)
(0.120915 0.0197424 0)
(0.124973 0.0207444 -6.39827e-24)
(0.129186 0.0177539 6.97572e-23)
(0.132421 0.0170996 0)
(0.135943 0.0146941 2.13257e-22)
(0.10812 0.0146856 0)
(0.109956 0.0154235 2.7364e-22)
(0.11266 0.016697 0)
(0.115381 0.0172014 1.8902e-22)
(0.118488 0.0178236 0)
(0.121572 0.017368 0)
(0.125366 0.0177602 6.39829e-24)
(0.128899 0.0160425 -6.97574e-23)
(0.131647 0.0150314 0)
(0.134496 0.0125355 -2.13257e-22)
(0.109595 0.013104 1.31196e-22)
(0.111351 0.0137972 0)
(0.11367 0.0148466 0)
(0.116247 0.0148983 8.31315e-23)
(0.119168 0.0154957 0)
(0.122057 0.0149733 0)
(0.125173 0.0150879 0)
(0.128284 0.0132666 -2.25373e-23)
(0.131014 0.012337 0)
(0.133467 0.0100547 0)
(0.110795 0.01157 -7.16346e-24)
(0.112368 0.0121334 0)
(0.11464 0.0128666 9.75857e-23)
(0.117021 0.0130401 -3.94632e-24)
(0.119608 0.0133525 0)
(0.12229 0.0128778 0)
(0.125153 0.0127558 9.4985e-24)
(0.127799 0.0114339 2.25373e-23)
(0.130203 0.0104441 -4.32552e-23)
(0.132317 0.00843063 -6.94615e-23)
(0.111736 0.0100672 -5.86507e-24)
(0.113288 0.010509 0)
(0.11532 0.0111431 -4.25412e-24)
(0.117521 0.0111155 -2.94948e-24)
(0.119937 0.0113621 5.69034e-23)
(0.122393 0.0108782 -3.51621e-23)
(0.124885 0.0106433 2.6444e-24)
(0.127256 0.00940578 -1.18832e-23)
(0.12946 0.00850882 7.31699e-24)
(0.131351 0.00671202 9.48397e-24)
(0.112514 0.00859959 -1.18168e-22)
(0.11397 0.00896499 0)
(0.115872 0.00939776 -9.33318e-23)
(0.117934 0.00940514 -7.6236e-23)
(0.120126 0.0095125 -5.69035e-23)
(0.122384 0.00907208 7.10809e-23)
(0.124662 0.00876643 -1.21429e-23)
(0.126769 0.00776806 1.18832e-23)
(0.128751 0.00693333 3.59383e-23)
(0.130444 0.00542086 5.99778e-23)
(0.113106 0.00718502 0)
(0.114532 0.00744598 0)
(0.116288 0.00780072 0)
(0.118196 0.00774309 0)
(0.120236 0.0077869 0)
(0.122311 0.00738063 -3.59188e-23)
(0.124373 0.00704846 0)
(0.126298 0.00617645 0)
(0.128108 0.00544052 0)
(0.129665 0.00415207 0)
(0.113572 0.0058023 0)
(0.114946 0.00600493 0)
(0.116596 0.00624433 0)
(0.118379 0.00619474 0)
(0.120275 0.00617956 0)
(0.122189 0.00581632 -1.90579e-23)
(0.124102 0.00548662 0)
(0.125874 0.00477029 0)
(0.127546 0.0041318 0)
(0.128981 0.00308059 0)
(0.113921 0.0044653 0)
(0.115245 0.00459677 0)
(0.11683 0.00476213 4.19801e-23)
(0.11847 0.00469901 0)
(0.120273 0.00464707 2.79028e-23)
(0.122021 0.00432931 1.90579e-23)
(0.123833 0.00401953 0)
(0.125458 0.0034345 1.68109e-24)
(0.127038 0.00289584 0)
(0.12835 0.00205672 0)
(0.11416 0.00316761 0)
(0.115364 0.00325053 0)
(0.116935 0.00334233 -4.19801e-23)
(0.11837 0.00328094 0)
(0.120139 0.0032011 -2.79028e-23)
(0.121635 0.00293304 0)
(0.123419 0.00265577 0)
(0.124787 0.00220088 -1.6811e-24)
(0.126336 0.00175593 0)
(0.127359 0.00112587 0)
(0.113235 0.00185549 -1.28199e-23)
(0.11409 0.00188941 -1.16809e-23)
(0.115547 0.00189678 -1.03577e-23)
(0.116516 0.00183739 0)
(0.118162 0.00172972 -7.11091e-24)
(0.119098 0.00153855 0)
(0.120759 0.00130171 -3.15812e-24)
(0.121458 0.000986048 0)
(0.122873 0.000641591 1.22583e-24)
(0.123043 0.000231463 3.47028e-24)
(0.0903363 0.000539077 1.28185e-23)
(0.0911242 0.000504613 1.16796e-23)
(0.0922125 0.000439023 1.03564e-23)
(0.0929319 0.000374842 0)
(0.0940166 0.000265788 7.10993e-24)
(0.0944869 0.000149763 0)
(0.0953414 2.96959e-06 3.15763e-24)
(0.0953056 -0.000151588 0)
(0.0956742 -0.000338303 -1.22561e-24)
(0.0947757 -0.000502704 -3.46965e-24)
(-0.00256894 -0.0032282 0)
(-0.0134259 0.000840855 0)
(-0.0420551 0.00650714 0)
(-0.0680826 0.00918405 0)
(-0.089208 0.00649896 0)
(-0.0984127 0.00232704 0)
(-0.0931569 -0.00165734 0)
(-0.0798677 -0.00516275 0)
(-0.0589294 -0.00622652 0)
(-0.035952 -0.00724515 0)
(-0.0125965 -0.00641497 0)
(0.00796218 -0.00539348 0)
(0.0249437 -0.00398573 0)
(0.0379789 -0.00264713 0)
(0.0474403 -0.00154895 0)
(0.0539708 -0.000743107 0)
(0.0582625 -0.000209982 0)
(0.0609345 0.000103069 0)
(0.0624938 0.000258199 0)
(0.0633302 0.000313895 0)
(0.0637254 0.000313754 0)
(0.0638684 0.000285971 0)
(0.0638782 0.000247838 0)
(0.0638235 0.000208219 0)
(0.063743 0.000172474 0)
(0.0636567 0.000142147 0)
(0.0635751 0.000117007 0)
(0.0635012 9.66027e-05 0)
(0.0634371 7.97632e-05 0)
(0.0633822 6.62596e-05 0)
(0.0633348 5.4719e-05 0)
(0.0632981 4.56401e-05 0)
(0.0632623 3.74035e-05 0)
(0.063243 3.09873e-05 0)
(0.0632148 2.50314e-05 0)
(0.0632122 1.9961e-05 0)
(0.0631897 1.58488e-05 0)
(0.0632024 1.1071e-05 0)
(0.0631868 8.81274e-06 0)
(0.0632098 2.89252e-06 0)
(-0.00113982 0.0139953 0)
(-0.0191474 0.0287448 0)
(-0.0494895 0.0305155 0)
(-0.0836172 0.0262647 0)
(-0.0980577 0.0164874 0)
(-0.108428 0.0031774 0)
(-0.0973186 -0.0112931 0)
(-0.083792 -0.0190988 0)
(-0.0566926 -0.0255941 0)
(-0.0331267 -0.0262201 0)
(-0.00688002 -0.0247115 0)
(0.0158995 -0.0214972 0)
(0.0352163 -0.0173156 0)
(0.0505002 -0.013188 0)
(0.0622703 -0.00962522 0)
(0.0712016 -0.00677623 0)
(0.0779298 -0.00460971 0)
(0.0829583 -0.00302919 0)
(0.0866817 -0.00192236 0)
(0.0894169 -0.00117796 0)
(0.0914164 -0.000696755 0)
(0.0928797 -0.000397792 0)
(0.0939582 -0.000219075 0)
(0.094763 -0.00011613 0)
(0.0953727 -5.87119e-05 0)
(0.0958424 -2.66902e-05 0)
(0.0962087 -1.06761e-05 0)
(0.0965014 -7.70367e-07 0)
(0.0967324 1.54023e-06 0)
(0.0969275 5.36122e-06 0)
(0.0970755 2.97917e-06 0)
(0.0972159 4.58777e-06 0)
(0.0973089 1.11671e-06 0)
(0.0974192 9.55491e-07 0)
(0.0974739 -2.63872e-06 0)
(0.0975698 -4.17889e-06 0)
(0.097597 -7.52697e-06 0)
(0.0976883 -1.13812e-05 0)
(0.0976973 -1.33555e-05 0)
(0.0977886 -2.06901e-05 0)
(-0.0188018 0.0145293 0)
(-0.0415379 0.0338329 0)
(-0.0604078 0.046218 0)
(-0.0857894 0.0408195 0)
(-0.101731 0.0248873 0)
(-0.101734 0.00321544 0)
(-0.09159 -0.0193315 0)
(-0.0724459 -0.0357692 0)
(-0.0481004 -0.0438836 0)
(-0.0245991 -0.0447558 0)
(-0.000397137 -0.0421202 0)
(0.0211472 -0.0362989 0)
(0.0395802 -0.029107 0)
(0.0540842 -0.0221741 0)
(0.0650891 -0.0164184 0)
(0.0733779 -0.0119719 0)
(0.0797091 -0.00863792 0)
(0.0846254 -0.00617129 0)
(0.0884725 -0.00436966 0)
(0.0914809 -0.00307718 0)
(0.0938239 -0.0021674 0)
(0.0956442 -0.00153661 0)
(0.0970591 -0.00110347 0)
(0.0981644 -0.000805605 0)
(0.0990325 -0.00060055 0)
(0.0997221 -0.000455317 0)
(0.100271 -0.000354309 0)
(0.100718 -0.000276501 0)
(0.101074 -0.000224632 0)
(0.101379 -0.000177862 0)
(0.101611 -0.000150567 0)
(0.101829 -0.000121064 0)
(0.101979 -0.000106054 0)
(0.102145 -8.774e-05 0)
(0.102238 -8.03204e-05 0)
(0.102374 -6.90043e-05 0)
(0.102425 -6.65269e-05 0)
(0.102548 -6.16988e-05 0)
(0.102569 -6.12867e-05 0)
(0.102688 -6.28415e-05 0)
(-0.0134712 0.0504912 0)
(-0.0300849 0.0619933 0)
(-0.0352835 0.0610034 0)
(-0.0660242 0.0591576 0)
(-0.0705069 0.0293305 0)
(-0.0699788 -0.00294647 0)
(-0.0536413 -0.0341159 0)
(-0.0371021 -0.0531289 0)
(-0.0147876 -0.0618002 0)
(0.00316118 -0.0619994 0)
(0.0204733 -0.0581231 0)
(0.0359627 -0.0506028 0)
(0.0498923 -0.040905 0)
(0.0614514 -0.0312251 0)
(0.0706303 -0.0231104 0)
(0.0776586 -0.016929 0)
(0.0829541 -0.0124138 0)
(0.0869871 -0.00912948 0)
(0.0901313 -0.00671756 0)
(0.0926297 -0.00494075 0)
(0.0946326 -0.00363989 0)
(0.0962417 -0.00269655 0)
(0.097534 -0.00201798 0)
(0.0985736 -0.00152954 0)
(0.0994108 -0.00117787 0)
(0.10009 -0.000918162 0)
(0.10064 -0.000729628 0)
(0.101095 -0.000580756 0)
(0.10146 -0.000475751 0)
(0.101776 -0.000382964 0)
(0.102018 -0.000322587 0)
(0.102246 -0.000262628 0)
(0.102405 -0.000226634 0)
(0.102578 -0.000187494 0)
(0.102677 -0.000167576 0)
(0.10282 -0.000141308 0)
(0.102875 -0.000132073 0)
(0.103002 -0.000116795 0)
(0.103025 -0.000113521 0)
(0.103147 -0.000108067 0)
(0.00311728 0.0539789 0)
(0.0125033 0.0529131 0)
(-0.00539665 0.0642445 0)
(-0.0198822 0.0635763 0)
(-0.0148098 0.0294607 0)
(-0.00460063 -0.00887142 0)
(0.0150389 -0.0419937 0)
(0.0276825 -0.063819 0)
(0.0418094 -0.0728786 0)
(0.052747 -0.0705584 0)
(0.0601029 -0.0649323 0)
(0.0655322 -0.0570439 0)
(0.0702389 -0.0469839 0)
(0.0740184 -0.0367679 0)
(0.0778397 -0.0279027 0)
(0.0820079 -0.0207726 0)
(0.0859843 -0.0153364 0)
(0.0893265 -0.011345 0)
(0.0919589 -0.00844886 0)
(0.0940104 -0.00633714 0)
(0.0956386 -0.00478483 0)
(0.0969587 -0.00363823 0)
(0.0980426 -0.00279066 0)
(0.0989381 -0.00216163 0)
(0.0996776 -0.00169505 0)
(0.100291 -0.00134108 0)
(0.100796 -0.00107782 0)
(0.10122 -0.000866485 0)
(0.101563 -0.000713779 0)
(0.101862 -0.000578896 0)
(0.102093 -0.000487907 0)
(0.102311 -0.000399279 0)
(0.102464 -0.000343525 0)
(0.102631 -0.000284392 0)
(0.102727 -0.00025255 0)
(0.102864 -0.00021174 0)
(0.102918 -0.000196031 0)
(0.10304 -0.000170479 0)
(0.103063 -0.000164446 0)
(0.10318 -0.000152089 0)
(0.0383041 0.0316193 0)
(0.0484199 0.0637894 0)
(0.0493391 0.0798888 0)
(0.037948 0.0726871 0)
(0.0472946 0.0246083 0)
(0.0622358 -0.0218268 0)
(0.0788722 -0.0528344 0)
(0.0880344 -0.0694909 0)
(0.0892469 -0.0783701 0)
(0.0937748 -0.0756818 0)
(0.0967169 -0.0675339 0)
(0.0962703 -0.0581941 0)
(0.0964823 -0.0466112 0)
(0.094806 -0.0358517 0)
(0.0914887 -0.0281474 0)
(0.0895943 -0.0223921 0)
(0.0899669 -0.0174735 0)
(0.0916366 -0.0132895 0)
(0.0935715 -0.00997448 0)
(0.0952717 -0.00749523 0)
(0.0966416 -0.00568737 0)
(0.0977388 -0.00437068 0)
(0.0986359 -0.00340256 0)
(0.0993843 -0.00267893 0)
(0.100013 -0.00213349 0)
(0.100546 -0.00171089 0)
(0.100991 -0.00138992 0)
(0.101371 -0.00112748 0)
(0.101682 -0.000934183 0)
(0.101956 -0.000762126 0)
(0.102169 -0.000643578 0)
(0.102372 -0.000528531 0)
(0.102514 -0.000454502 0)
(0.102669 -0.000376546 0)
(0.102759 -0.00033349 0)
(0.102888 -0.000278898 0)
(0.102939 -0.000257022 0)
(0.103053 -0.000221665 0)
(0.103075 -0.000212997 0)
(0.103185 -0.000193952 0)
(-0.0372512 -0.00451195 0)
(0.0374911 0.0455035 0)
(0.0416014 0.0741699 0)
(0.0673269 0.0667087 0)
(0.0882614 0.0159768 0)
(0.102258 -0.030853 0)
(0.114964 -0.0584394 0)
(0.121952 -0.0699516 0)
(0.112608 -0.0775674 0)
(0.106901 -0.0761755 0)
(0.108138 -0.0671318 0)
(0.103766 -0.0588597 0)
(0.101981 -0.0479914 0)
(0.104323 -0.0343739 0)
(0.103853 -0.024405 0)
(0.100255 -0.0195353 0)
(0.0970071 -0.0167094 0)
(0.0956751 -0.0139277 0)
(0.0958406 -0.0110933 0)
(0.0966678 -0.00859046 0)
(0.0976176 -0.00660696 0)
(0.0984789 -0.00511513 0)
(0.0992131 -0.00400706 0)
(0.0998367 -0.00317477 0)
(0.100368 -0.00254412 0)
(0.100825 -0.00205221 0)
(0.101213 -0.00167565 0)
(0.101547 -0.00136556 0)
(0.101824 -0.0011351 0)
(0.10207 -0.000929357 0)
(0.102262 -0.000786007 0)
(0.102446 -0.000647074 0)
(0.102575 -0.000556582 0)
(0.102717 -0.000461496 0)
(0.1028 -0.000408264 0)
(0.102917 -0.000341036 0)
(0.102964 -0.00031353 0)
(0.103069 -0.000269118 0)
(0.103089 -0.000258038 0)
(0.10319 -0.000232741 0)
(0.112933 0.0330692 0)
(0.0883319 0.0190771 0)
(0.0866445 0.0476472 0)
(0.108969 0.0395939 0)
(0.129407 -0.00213528 0)
(0.131162 -0.0450339 0)
(0.13396 -0.0707051 0)
(0.143215 -0.0715201 0)
(0.133203 -0.0712548 0)
(0.114957 -0.073538 0)
(0.110746 -0.0636816 0)
(0.104351 -0.0522987 0)
(0.0939704 -0.0458189 0)
(0.0922212 -0.036743 0)
(0.0969148 -0.0257268 0)
(0.100842 -0.018 0)
(0.101618 -0.014244 0)
(0.100584 -0.0122472 0)
(0.0994969 -0.0104533 0)
(0.0990436 -0.00857474 0)
(0.0991378 -0.00682799 0)
(0.0995082 -0.00539014 0)
(0.0999613 -0.00428481 0)
(0.100406 -0.00344663 0)
(0.100811 -0.00280627 0)
(0.101172 -0.00229768 0)
(0.101486 -0.00189985 0)
(0.101764 -0.00156374 0)
(0.101998 -0.00130921 0)
(0.102209 -0.00107803 0)
(0.102375 -0.000914809 0)
(0.102536 -0.000755412 0)
(0.10265 -0.000650546 0)
(0.102776 -0.000540054 0)
(0.102849 -0.000477613 0)
(0.102953 -0.000398794 0)
(0.102995 -0.000366116 0)
(0.103088 -0.000313297 0)
(0.103107 -0.000299988 0)
(0.103197 -0.000268807 0)
(0.141622 0.0485364 0)
(0.14017 0.042811 0)
(0.13558 0.0541519 0)
(0.157808 0.0409401 0)
(0.179234 0.00352685 0)
(0.175757 -0.032923 0)
(0.157892 -0.0647538 0)
(0.148508 -0.0679824 0)
(0.146408 -0.0557879 0)
(0.129101 -0.058702 0)
(0.112185 -0.0583958 0)
(0.103427 -0.0454705 0)
(0.0919095 -0.0373781 0)
(0.0827263 -0.0345926 0)
(0.0820428 -0.0295777 0)
(0.0876352 -0.0225211 0)
(0.0943601 -0.0164726 0)
(0.0988066 -0.0125391 0)
(0.100578 -0.0101553 0)
(0.100836 -0.00848969 0)
(0.100671 -0.00710342 0)
(0.100587 -0.0058665 0)