/*--------------------------------*- C++ -*----------------------------------*\
| =========                 |                                                 |
| \\      /  F ield         | OpenFOAM: The Open Source CFD Toolbox           |
|  \\    /   O peration     | Version:  2112                                  |
|   \\  /    A nd           | Website:  www.openfoam.com                      |
|    \\/     M anipulation  |                                                 |
\*---------------------------------------------------------------------------*/
FoamFile
{
    version     2.0;
    format      ascii;
    arch        "LSB;label=32;scalar=64";
    class       volScalarField;
    location    "0.1";
    object      nut;
}
// * * * * * * * * * * * * * * * * * * * * * * * * * * * * * * * * * * * * * //

dimensions      [0 2 -1 0 0 0 0];

internalField   nonuniform List<scalar> 
1880
(
3.67827e-11
2.80741e-12
6.18143e-13
7.38488e-14
1.8643e-12
4.11594e-14
2.2798e-13
1.66564e-13
1.07039e-12
9.07404e-13
3.9294e-13
9.00214e-14
1.80138e-14
2.23405e-15
2.45837e-17
2.3253e-16
3.34806e-16
7.40813e-15
4.3927e-15
8.13205e-14
1.0693e-13
8.22582e-13
1.59639e-12
5.64004e-12
8.00753e-12
2.69503e-11
3.21033e-11
1.9159e-10
2.11912e-09
2.87197e-09
4.91285e-09
4.68368e-09
4.39067e-09
6.51005e-10
7.46971e-10
3.79455e-11
2.28934e-10
3.84046e-11
2.18923e-10
2.85145e-10
1.65029e-10
4.28926e-11
6.9104e-12
4.19817e-13
1.84647e-15
8.70675e-13
1.43065e-12
1.60077e-11
6.18216e-12
1.17052e-10
2.92743e-11
5.64586e-10
2.54167e-10
1.58791e-09
2.25661e-09
4.40573e-09
9.96433e-09
2.07459e-08
3.15752e-08
7.86446e-08
9.26084e-10
7.92363e-09
6.14649e-09
3.00478e-09
6.38478e-09
2.80871e-09
7.5725e-09
2.02345e-09
6.98963e-10
8.66925e-09
4.53811e-09
1.39374e-12
3.09464e-10
7.08956e-10
9.79716e-10
1.61968e-09
2.03049e-09
3.25139e-09
3.26027e-09
5.88709e-09
4.58442e-09
9.85989e-09
6.6851e-09
1.44724e-08
1.38135e-08
2.0192e-08
2.99679e-08
2.99503e-08
5.06951e-08
4.79841e-08
1.06797e-10
5.37293e-09
8.20567e-09
6.35371e-09
4.6438e-09
1.08372e-09
8.70032e-09
8.25453e-10
2.62723e-09
1.15036e-09
3.34042e-09
2.37933e-09
1.83279e-09
2.05021e-09
2.19768e-09
2.68046e-09
3.02799e-09
4.03883e-09
4.23029e-09
6.07876e-09
5.90791e-09
8.86208e-09
8.05511e-09
1.24555e-08
1.21568e-08
1.86023e-08
1.99826e-08
2.87425e-08
3.14235e-08
4.53265e-08
4.22135e-11
6.28228e-09
5.3141e-09
4.26912e-09
6.69165e-10
2.03492e-09
6.79728e-09
2.41889e-10
5.34767e-09
1.96467e-09
1.20662e-09
7.27529e-10
1.32262e-09
1.70793e-09
1.76448e-09
2.36358e-09
2.7415e-09
3.74951e-09
3.99671e-09
5.60738e-09
5.58395e-09
7.96405e-09
8.06786e-09
1.19731e-08
1.53117e-08
2.01834e-08
2.73745e-08
2.82046e-08
3.80178e-08
3.0121e-08
2.29012e-10
5.41846e-09
7.86025e-09
6.67242e-09
6.95211e-10
7.90385e-10
9.89139e-09
9.22004e-10
2.92512e-09
6.59402e-10
2.81224e-09
1.46817e-09
6.3948e-10
1.2273e-09
1.50648e-09
2.10833e-09
2.60858e-09
3.52703e-09
3.99453e-09
5.30065e-09
5.67779e-09
7.37529e-09
7.84572e-09
1.07268e-08
1.25315e-08
1.57447e-08
1.77884e-08
2.06521e-08
2.26741e-08
3.05007e-08
2.5877e-10
5.40958e-09
7.05413e-09
5.53967e-09
1.33683e-09
2.16304e-09
8.76543e-09
7.54974e-10
3.13944e-09
1.68248e-09
2.01042e-09
1.1687e-09
6.58697e-10
1.19119e-09
1.42472e-09
1.99497e-09
2.55443e-09
3.34018e-09
3.97047e-09
4.9465e-09
5.64275e-09
6.7244e-09
7.90641e-09
1.0053e-08
1.35198e-08
1.57918e-08
1.99795e-08
1.85172e-08
2.37527e-08
2.37291e-08
4.37692e-10
5.33653e-09
7.85963e-09
6.4428e-09
2.87354e-09
1.79286e-09
1.00004e-08
1.32439e-09
4.31542e-09
1.25436e-09
2.5126e-09
1.53245e-09
8.17938e-10
1.22478e-09
1.51973e-09
1.98117e-09
2.58567e-09
3.20226e-09
3.97946e-09
4.66317e-09
5.61696e-09
6.26802e-09
7.6057e-09
9.11662e-09
1.15231e-08
1.31497e-08
1.47956e-08
1.65088e-08
1.81417e-08
2.3397e-08
6.59596e-10
5.09869e-09
8.00366e-09
6.42801e-09
3.21071e-09
2.48713e-09
9.95542e-09
1.61717e-09
5.64128e-09
1.68475e-09
2.5468e-09
1.71664e-09
1.17465e-09
1.44118e-09
1.70412e-09
2.0632e-09
2.65774e-09
3.1233e-09
3.97497e-09
4.42495e-09
5.543e-09
5.86529e-09
7.4097e-09
8.47032e-09
1.10016e-08
1.22947e-08
1.4078e-08
1.47555e-08
1.69479e-08
2.03157e-08
9.81459e-10
4.72161e-09
8.18576e-09
6.57641e-09
3.3011e-09
2.73521e-09
1.01832e-08
1.97555e-09
6.16993e-09
1.93127e-09
2.74739e-09
1.99758e-09
1.49284e-09
1.67536e-09
1.9189e-09
2.19323e-09
2.74691e-09
3.09607e-09
3.9585e-09
4.26009e-09
5.42924e-09
5.60453e-09
7.10242e-09
7.89034e-09
9.83345e-09
1.11261e-08
1.21079e-08
1.39431e-08
1.52538e-08
1.7966e-08
1.34579e-09
4.18417e-09
8.34453e-09
6.7104e-09
3.00522e-09
2.79532e-09
1.041e-08
2.32724e-09
6.3277e-09
2.13647e-09
2.97556e-09
2.2773e-09
1.77859e-09
1.90663e-09
2.12435e-09
2.33863e-09
2.83531e-09
3.10108e-09
3.92317e-09
4.14104e-09
5.28458e-09
5.40364e-09
6.82325e-09
7.45522e-09
9.09563e-09
1.03351e-08
1.11137e-08
1.29197e-08
1.41057e-08
1.66918e-08
1.46786e-09
3.49058e-09
8.32064e-09
6.56676e-09
2.37676e-09
2.9979e-09
1.01351e-08
2.4983e-09
6.75842e-09
2.53266e-09
3.07601e-09
2.47628e-09
2.03715e-09
2.12151e-09
2.29497e-09
2.47078e-09
2.90122e-09
3.1203e-09
3.86777e-09
4.06097e-09
5.12122e-09
5.26641e-09
6.53469e-09
7.11295e-09
8.39549e-09
9.66104e-09
1.02294e-08
1.20793e-08
1.31304e-08
1.47552e-08
1.1849e-09
2.87657e-09
8.4509e-09
6.78231e-09
1.77312e-09
2.46795e-09
1.04386e-08
2.80844e-09
6.3349e-09
2.52305e-09
3.47677e-09
2.79892e-09
2.2189e-09
2.26888e-09
2.43201e-09
2.57333e-09
2.94081e-09
3.1331e-09
3.79716e-09
3.99802e-09
4.94796e-09
5.15576e-09
6.2637e-09
6.84387e-09
7.86653e-09
9.10928e-09
9.58916e-09
1.13351e-08
1.22588e-08
1.37995e-08
6.38662e-10
2.38045e-09
7.65524e-09
5.96236e-09
1.90975e-09
2.8694e-09
9.37937e-09
2.80131e-09
6.76384e-09
3.023e-09
3.34998e-09
2.78116e-09
2.39839e-09
2.39906e-09
2.48512e-09
2.61496e-09
2.92576e-09
3.12288e-09
3.70333e-09
3.93922e-09
4.77055e-09
5.05835e-09
6.01379e-09
6.62395e-09
7.45267e-09
8.65922e-09
9.10371e-09
1.06504e-08
1.15401e-08
1.26647e-08
4.4167e-10
3.66853e-09
8.54399e-09
7.06208e-09
1.69423e-09
1.21983e-09
1.05151e-08
3.17254e-09
5.54276e-09
2.89245e-09
3.72507e-09
3.13729e-09
2.47274e-09
2.42028e-09
2.52466e-09
2.62352e-09
2.88789e-09
3.08373e-09
3.59962e-09
3.87546e-09
4.60193e-09
4.96526e-09
5.79201e-09
6.43357e-09
7.13666e-09
8.28056e-09
8.72563e-09
1.00887e-08
1.0915e-08
1.1911e-08
9.6872e-11
5.31383e-09
6.11709e-09
4.99804e-09
5.82174e-09
2.5735e-09
7.84438e-09
2.7449e-09
6.93121e-09
3.56146e-09
3.57664e-09
2.971e-09
2.47824e-09
2.39428e-09
2.37134e-09
2.49651e-09
2.75099e-09
2.99664e-09
3.46389e-09
3.8008e-09
4.43953e-09
4.87573e-09
5.59889e-09
6.26868e-09
6.89219e-09
7.96375e-09
8.43073e-09
9.61473e-09
1.04064e-08
1.12613e-08
1.44279e-10
5.10172e-09
8.74906e-09
6.73176e-09
6.64031e-09
2.05089e-10
9.42156e-09
3.00942e-09
4.26477e-09
3.14712e-09
4.1549e-09
3.14517e-09
2.3554e-09
2.19242e-09
2.2516e-09
2.36434e-09
2.603e-09
2.87e-09
3.31861e-09
3.7057e-09
4.2828e-09
4.7851e-09
5.42242e-09
6.12855e-09
6.69437e-09
7.70039e-09
8.19442e-09
9.24041e-09
9.98459e-09
1.0803e-08
1.08158e-09
8.32622e-09
6.79379e-09
3.84663e-09
1.11011e-08
3.55553e-09
8.05346e-09
3.28177e-09
7.17445e-09
1.14886e-09
2.24348e-09
1.42554e-08
1.70608e-08
7.5111e-09
3.67724e-10
1.41218e-13
1.01642e-10
4.46529e-10
9.91232e-10
1.6126e-09
2.33967e-09
3.14523e-09
3.785e-09
4.96728e-09
5.28389e-09
6.80555e-09
7.11361e-09
8.46222e-09
8.98489e-09
1.02157e-08
4.97879e-09
4.40157e-09
4.20346e-09
5.98236e-10
6.74268e-10
1.87811e-11
2.34174e-10
9.89807e-11
4.32798e-10
5.30668e-10
3.15345e-10
1.10936e-10
3.51868e-11
1.209e-11
4.6356e-12
2.15183e-12
1.41942e-12
1.12554e-12
1.1234e-12
1.09712e-12
1.14832e-12
1.03948e-12
1.2251e-12
5.43272e-13
9.77667e-13
2.15918e-13
1.30248e-13
3.99541e-14
3.02128e-13
1.94182e-12
3.6144e-11
2.6992e-12
6.17981e-13
5.86167e-14
1.76893e-12
2.58327e-14
2.51508e-13
2.3708e-13
1.24392e-12
1.08823e-12
5.02728e-13
1.4175e-13
4.28118e-14
1.37176e-14
3.71631e-15
1.18951e-15
6.21177e-16
4.61162e-16
4.62839e-16
4.99109e-16
5.67132e-16
7.30291e-16
7.73353e-16
1.03852e-15
1.03391e-15
1.46496e-15
6.37555e-16
1.21738e-15
1.34435e-16
4.49185e-17
5.78408e-08
4.42555e-10
9.21721e-12
1.03851e-08
1.37998e-08
1.33269e-11
1.07379e-08
8.3468e-09
4.0129e-09
6.47787e-11
6.61296e-08
1.20613e-07
2.54712e-08
5.16017e-08
7.91973e-08
1.36335e-08
6.88614e-08
2.22992e-06
1.54412e-07
1.18584e-07
8.51354e-08
4.73285e-08
4.4946e-08
8.14685e-08
4.25295e-08
5.57437e-08
8.77413e-08
5.0532e-07
1.51658e-08
2.57131e-09
6.21875e-08
4.96294e-08
4.61093e-08
4.80749e-08
7.29527e-08
3.17068e-09
8.34903e-08
9.5887e-08
2.52777e-08
9.68352e-08
5.27414e-08
3.86066e-08
2.98179e-08
4.40776e-08
4.44503e-08
3.54366e-08
5.95011e-08
7.51386e-08
2.83816e-08
6.96453e-08
3.49814e-08
3.27171e-08
3.71501e-08
3.48571e-08
3.79523e-08
5.06752e-08
4.81952e-08
5.16684e-08
3.25589e-08
4.13324e-08
3.29733e-08
3.25844e-08
2.66437e-08
3.12697e-08
3.67581e-08
3.37188e-08
3.62212e-08
4.58138e-08
3.16552e-08
3.7635e-08
2.72511e-08
2.52138e-08
2.93616e-08
3.16072e-08
2.96006e-08
3.8628e-08
3.43253e-08
3.16538e-08
2.89562e-08
2.84612e-08
2.32028e-08
2.49137e-08
2.42881e-08
2.53898e-08
2.82844e-08
2.79874e-08
2.79917e-08
3.01152e-08
2.56321e-08
2.43922e-08
2.19644e-08
2.07644e-08
2.29042e-08
2.54791e-08
2.38244e-08
2.65457e-08
2.52339e-08
2.35939e-08
2.2725e-08
2.11685e-08
1.81426e-08
1.94203e-08
2.03331e-08
2.17689e-08
2.26231e-08
2.19422e-08
2.15843e-08
2.14903e-08
2.0002e-08
1.84523e-08
1.7137e-08
1.71952e-08
1.84926e-08
2.07284e-08
2.02794e-08
1.98929e-08
1.91446e-08
1.81445e-08
1.75322e-08
1.58002e-08
1.49146e-08
1.58668e-08
1.68352e-08
1.84763e-08
1.86849e-08
1.75107e-08
1.68575e-08
1.62353e-08
1.54053e-08
1.38789e-08
1.38432e-08
1.4529e-08
1.54207e-08
1.69705e-08
1.69282e-08
1.58994e-08
1.50811e-08
1.41965e-08
1.35411e-08
1.19114e-08
1.27086e-08
1.35336e-08
1.42508e-08
1.53767e-08
1.54393e-08
1.44047e-08
1.35772e-08
1.27399e-08
1.19586e-08
1.04546e-08
1.19712e-08
1.26921e-08
1.32824e-08
1.40785e-08
1.40606e-08
1.32608e-08
1.23873e-08
1.14577e-08
1.06302e-08
9.15221e-09
1.14034e-08
1.20353e-08
1.24996e-08
1.30281e-08
1.29825e-08
1.23666e-08
1.14862e-08
1.05814e-08
9.67124e-09
8.31159e-09
1.05221e-08
1.08041e-08
1.10866e-08
1.10066e-08
1.1037e-08
9.81128e-09
9.00171e-09
6.90485e-09
6.1492e-09
3.83786e-09
2.60234e-12
1.1434e-11
1.99524e-11
4.25366e-11
5.87731e-11
8.10578e-11
6.91633e-11
6.39479e-11
5.49035e-11
4.60723e-11
4.44752e-16
3.10632e-15
7.22199e-15
1.16531e-14
1.81505e-14
3.83154e-14
4.13501e-14
3.69773e-14
4.56332e-14
2.52851e-14
9.68096e-08
3.75989e-09
8.16373e-09
7.90369e-09
5.84966e-09
1.02705e-08
3.74784e-08
1.23349e-07
7.60521e-08
9.76861e-09
1.09727e-09
1.54125e-10
2.56401e-11
4.59598e-12
8.31699e-13
1.4745e-13
2.54717e-14
4.33775e-15
7.48906e-16
1.37151e-16
2.85579e-17
7.35394e-18
2.41758e-18
9.93518e-19
4.88021e-19
2.6677e-19
1.447e-19
7.01189e-20
4.54367e-20
1.49555e-20
2.76838e-20
1.8896e-21
2.31055e-20
5.11627e-22
3.70446e-21
3.48116e-21
1.80044e-21
1.90568e-20
1.36563e-20
5.20661e-20
9.31483e-08
1.85044e-07
1.9402e-07
5.32372e-08
7.43928e-08
1.872e-07
1.85845e-07
1.5657e-07
1.26904e-07
1.02099e-07
7.99062e-08
5.78741e-08
3.62826e-08
1.83782e-08
7.33615e-09
2.41388e-09
7.11709e-10
2.03202e-10
5.9342e-11
1.83224e-11
6.08482e-12
2.18803e-12
8.50751e-13
3.54972e-13
1.57438e-13
7.35414e-14
3.59879e-14
1.80887e-14
9.55736e-15
4.88157e-15
2.84552e-15
1.35564e-15
8.77835e-16
4.04746e-16
2.27995e-16
1.33993e-16
5.51778e-17
3.0548e-17
8.39681e-18
3.91512e-18
1.33784e-07
1.8409e-07
1.44858e-07
1.62354e-06
5.30059e-08
1.94063e-07
2.17389e-07
1.76085e-07
1.31094e-07
9.90331e-08
8.04183e-08
6.64811e-08
5.36437e-08
4.22433e-08
3.28903e-08
2.55382e-08
1.97714e-08
1.51285e-08
1.12665e-08
8.01381e-09
5.34795e-09
3.30962e-09
1.89705e-09
1.0168e-09
5.18475e-10
2.56205e-10
1.25106e-10
6.06775e-11
3.01007e-11
1.45422e-11
7.72943e-12
3.58775e-12
2.10321e-12
9.66675e-13
5.40794e-13
2.84542e-13
1.42002e-13
6.59505e-14
3.1957e-14
1.28599e-14
1.45254e-07
1.84596e-07
2.8193e-09
3.86552e-06
3.61096e-06
2.69421e-09
2.0087e-07
1.90106e-07
1.42782e-07
1.07124e-07
7.79121e-08
6.03927e-08
4.96752e-08
4.04091e-08
3.19108e-08
2.47791e-08
1.92032e-08
1.49861e-08
1.18206e-08
9.42966e-09
7.60094e-09
6.18154e-09
5.06369e-09
4.17112e-09
3.44964e-09
2.85911e-09
2.37164e-09
1.96187e-09
1.62105e-09
1.31975e-09
1.08196e-09
8.43973e-10
6.86214e-10
5.00655e-10
3.92256e-10
2.69484e-10
2.01177e-10
1.18785e-10
9.04884e-11
4.4842e-11
1.01269e-07
1.70416e-07
8.28995e-07
4.84613e-06
4.9409e-06
2.34401e-06
1.32641e-08
1.49943e-07
1.292e-07
8.59861e-08
6.91117e-08
5.81677e-08
4.61886e-08
3.67341e-08
2.93278e-08
2.31613e-08
1.81743e-08
1.43022e-08
1.13486e-08
9.09312e-09
7.35332e-09
5.994e-09
4.91853e-09
4.05811e-09
3.36363e-09
2.79838e-09
2.33642e-09
1.95463e-09
1.64239e-09
1.37669e-09
1.16751e-09
9.73703e-10
8.39677e-10
6.9284e-10
6.08439e-10
4.98736e-10
4.47332e-10
3.59058e-10
3.36667e-10
2.63146e-10
3.60987e-08
1.25233e-07
9.81144e-08
4.40689e-06
5.19334e-06
2.46136e-06
2.14214e-09
3.96677e-08
8.44576e-08
1.17177e-07
7.82896e-08
4.96228e-08
3.91176e-08
3.31602e-08
2.69568e-08
2.14179e-08
1.69863e-08
1.35289e-08
1.08498e-08
8.76991e-09
7.14231e-09
5.85497e-09
4.82585e-09
3.99534e-09
3.32014e-09
2.76726e-09
2.31326e-09
1.93641e-09
1.62756e-09
1.36362e-09
1.15585e-09
9.62782e-10
8.28605e-10
6.82853e-10
5.97292e-10
4.88049e-10
4.3627e-10
3.47663e-10
3.25574e-10
2.50174e-10
3.7382e-08
3.81604e-07
2.56455e-07
3.38778e-06
5.07509e-06
2.12174e-06
4.69071e-09
8.01248e-08
4.35647e-08
3.78043e-08
6.59793e-08
8.0489e-08
5.83707e-08
3.76701e-08
2.70998e-08
2.09855e-08
1.65029e-08
1.3077e-08
1.04793e-08
8.49243e-09
6.94495e-09
5.71788e-09
4.73124e-09
3.92994e-09
3.27475e-09
2.73547e-09
2.29079e-09
1.92001e-09
1.61558e-09
1.35389e-09
1.14846e-09
9.55855e-10
8.22346e-10
6.77406e-10
5.90087e-10
4.82301e-10
4.28328e-10
3.39959e-10
3.15823e-10
2.40309e-10
1.74309e-06
4.17147e-08
3.16362e-07
1.49472e-06
3.58467e-06
7.83599e-07
3.03916e-09
1.44354e-08
1.05832e-07
9.37143e-08
4.96092e-08
4.1779e-08
5.19732e-08
5.09805e-08
3.69054e-08
2.46177e-08
1.72384e-08
1.29108e-08
1.01929e-08
8.32133e-09
6.90495e-09
5.76377e-09
4.81976e-09
4.0335e-09
3.37855e-09
2.8324e-09
2.37809e-09
1.9966e-09
1.68242e-09
1.41047e-09
1.19762e-09
9.95969e-10
8.56679e-10
7.0544e-10
6.11825e-10
5.00433e-10
4.41227e-10
3.4882e-10
3.21072e-10
2.41686e-10
1.48316e-06
7.0591e-07
1.34511e-07
1.10384e-07
2.49956e-07
1.81432e-07
6.22943e-08
4.89202e-09
6.82803e-08
9.32553e-07
7.18202e-07
4.99812e-08
5.93584e-08
4.16896e-08
3.43177e-08
2.77626e-08
2.10322e-08
1.54971e-08
1.1547e-08
8.88026e-09
7.06514e-09
5.763e-09
4.77026e-09
3.97881e-09
3.33204e-09
2.79621e-09
2.35099e-09
1.9763e-09
1.66746e-09
1.39842e-09
1.1886e-09
9.87712e-10
8.4949e-10
6.99318e-10
6.03828e-10
4.94337e-10
4.32605e-10
3.40623e-10
3.10398e-10
2.3078e-10
2.03643e-10
1.20441e-08
8.10393e-08
1.02195e-07
1.44206e-07
1.5189e-07
2.69079e-08
1.26005e-07
2.01389e-07
2.06412e-08
1.13412e-06
7.97846e-07
5.55717e-07
3.01097e-07
5.47164e-09
4.02597e-09
9.67877e-09
9.66501e-09
8.41266e-09
7.2384e-09
6.23486e-09
5.34601e-09
4.5536e-09
3.85857e-09
3.25998e-09
2.74999e-09
2.31981e-09
1.9542e-09
1.65156e-09
1.38592e-09
1.17933e-09
9.79435e-10
8.42387e-10
6.93328e-10
5.96202e-10
4.88574e-10
4.2455e-10
3.32995e-10
3.00423e-10
2.20348e-10
7.74992e-08
7.92504e-08
5.51258e-08
1.36988e-07
1.40988e-07
4.47998e-08
6.29336e-08
1.65088e-08
1.01891e-07
6.61808e-11
2.3015e-10
2.45074e-08
6.80496e-08
5.12927e-08
3.27781e-08
2.3421e-08
1.75616e-08
1.31474e-08
9.9621e-09
7.82976e-09
6.39178e-09
5.33889e-09
4.49978e-09
3.80121e-09
3.21189e-09
2.71279e-09
2.29197e-09
1.93337e-09
1.63618e-09
1.37382e-09
1.17034e-09
9.71585e-10
8.35755e-10
6.87815e-10
5.89421e-10
4.83509e-10
4.1755e-10
3.26419e-10
2.91764e-10
2.11038e-10
8.96237e-08
4.32282e-08
7.56533e-08
3.28245e-08
9.57451e-08
8.01432e-08
1.23308e-07
3.85876e-08
9.28093e-08
5.34975e-08
1.14706e-08
9.40215e-08
9.53507e-08
6.73243e-08
4.44299e-08
3.01667e-08
2.10077e-08
1.47543e-08
1.05556e-08
7.92828e-09
6.31741e-09
5.23498e-09
4.40949e-09
3.73138e-09
3.15987e-09
2.67456e-09
2.26398e-09
1.91271e-09
1.62101e-09
1.36211e-09
1.16168e-09
9.64277e-10
8.29738e-10
6.82926e-10
5.83753e-10
4.79312e-10
4.11926e-10
3.21212e-10
2.84938e-10
2.03489e-10
7.47983e-08
3.64668e-08
3.31395e-08
4.82024e-08
6.20085e-08
7.98675e-09
5.93362e-08
1.07004e-08
8.59642e-08
2.84098e-10
8.25668e-07
7.37635e-07
2.92819e-07
6.48273e-08
1.61226e-08
2.84578e-08
2.05862e-08
1.28156e-08
8.908e-09
6.95929e-09
5.8243e-09
4.98526e-09
4.27184e-09
3.64712e-09
3.1041e-09
2.63585e-09
2.23641e-09
1.89268e-09
1.60642e-09
1.35109e-09
1.15358e-09
9.57751e-10
8.24563e-10
6.78849e-10
5.79456e-10
4.76171e-10
4.07973e-10
3.1768e-10
2.80401e-10
1.98414e-10
4.92649e-08
4.65554e-08
3.92357e-08
2.61876e-08
5.73813e-08
4.94853e-08
1.62504e-08
2.76397e-08
6.72018e-08
2.28146e-09
8.03357e-09
1.43528e-08
4.41425e-08
4.78178e-08
3.83019e-08
2.82412e-08
2.01626e-08
1.41752e-08
1.0108e-08
7.59781e-09
6.06975e-09
5.03906e-09
4.25266e-09
3.60864e-09
3.06632e-09
2.60456e-09
2.21215e-09
1.87442e-09
1.59288e-09
1.34103e-09
1.14621e-09
9.52162e-10
8.20361e-10
6.75691e-10
5.76681e-10
4.74193e-10
4.05875e-10
3.16003e-10
2.78447e-10
1.96384e-10
3.69327e-08
2.86316e-08
2.60876e-08
4.03466e-08
3.7603e-08
3.54298e-08
6.08468e-08
6.48814e-08
3.90681e-08
2.33618e-08
2.58203e-08
4.69139e-08
4.64551e-08
3.88888e-08
3.02315e-08
2.21429e-08
1.52041e-08
1.04343e-08
7.84005e-09
6.46764e-09
5.55374e-09
4.79543e-09
4.12443e-09
3.53244e-09
3.01659e-09
2.57022e-09
2.18771e-09
1.85684e-09
1.58015e-09
1.33193e-09
1.13964e-09
9.47589e-10
8.17204e-10
6.73509e-10
5.75488e-10
4.73423e-10
4.05697e-10
3.16242e-10
2.79174e-10
1.97617e-10
3.46019e-08
3.15084e-08
2.63582e-08
2.19422e-08
3.31951e-08
3.40251e-08
1.86977e-08
3.53687e-08
4.8052e-08
3.99975e-08
3.15476e-08
3.63038e-08
3.44228e-08
2.91105e-08
2.41698e-08
1.89742e-08
1.42464e-08
1.06483e-08
8.26071e-09
6.72017e-09
5.63584e-09
4.78929e-09
4.08782e-09
3.49186e-09
2.9813e-09
2.54224e-09
2.16644e-09
1.84118e-09
1.5687e-09
1.32399e-09
1.13398e-09
9.44076e-10
8.15108e-10
6.72304e-10
5.75844e-10
4.73837e-10
4.07382e-10
3.18325e-10
2.82465e-10
2.01871e-10
2.33714e-08
2.09547e-08
2.03443e-08
2.3194e-08
2.59636e-08
2.72822e-08
3.17461e-08
3.4772e-08
3.10122e-08
1.97592e-08
2.43615e-08
2.99912e-08
2.85562e-08
2.43002e-08
1.92335e-08
1.45198e-08
1.09622e-08
8.69261e-09
7.27918e-09
6.25584e-09
5.40338e-09
4.65912e-09
4.00658e-09
3.43707e-09
2.94262e-09
2.5144e-09
2.14626e-09
1.82677e-09
1.55836e-09
1.31717e-09
1.12921e-09
9.41593e-10
8.14029e-10
6.72032e-10
5.77632e-10
4.75349e-10
4.1076e-10
3.22064e-10
2.88011e-10
2.08552e-10
2.35669e-08
2.11313e-08
1.8544e-08
1.7224e-08
2.01583e-08
2.13338e-08
1.91136e-08
2.05331e-08
2.60143e-08
2.55826e-08
2.05641e-08
1.8573e-08
1.77754e-08
1.59948e-08
1.39145e-08
1.17754e-08
9.88418e-09
8.38234e-09
7.18566e-09
6.18929e-09
5.33584e-09
4.59647e-09
3.95378e-09
3.39509e-09
2.91038e-09
2.49025e-09
2.12845e-09
1.8141e-09
1.5493e-09
1.31149e-09
1.12534e-09
9.4008e-10
8.13881e-10
6.72601e-10
5.80654e-10
4.77815e-10
4.15565e-10
3.27175e-10
2.95368e-10
2.1694e-10
1.63699e-08
1.47452e-08
1.4394e-08
1.52798e-08
1.71051e-08
1.92463e-08
1.95728e-08
1.95041e-08
1.912e-08
1.74125e-08
1.65764e-08
1.66234e-08
1.62055e-08
1.46998e-08
1.26889e-08
1.07982e-08
9.25465e-09
8.00444e-09
6.9497e-09
6.03336e-09
5.22829e-09
4.51999e-09
3.89828e-09
3.35439e-09
2.88043e-09
2.46836e-09
2.11257e-09
1.80299e-09
1.54148e-09
1.3069e-09
1.12234e-09
9.39429e-10
8.14537e-10
6.73885e-10
5.84658e-10
4.81047e-10
4.21465e-10
3.33312e-10
3.04019e-10
2.26364e-10
1.56286e-08
1.40093e-08
1.27465e-08
1.22538e-08
1.30372e-08
1.39966e-08
1.48676e-08
1.5455e-08
1.57631e-08
1.62371e-08
1.58609e-08
1.47958e-08
1.35504e-08
1.22844e-08
1.10668e-08
9.90106e-09
8.78539e-09
7.73985e-09
6.78171e-09
5.91678e-09
5.14351e-09
4.45711e-09
3.85136e-09
3.31943e-09
2.85453e-09
2.44942e-09
2.09886e-09
1.79354e-09
1.5349e-09
1.30333e-09
1.12012e-09
9.39505e-10
8.15836e-10
6.75725e-10
5.89347e-10
4.84829e-10
4.28089e-10
3.40102e-10
3.13429e-10
2.36259e-10
1.17187e-08
1.03229e-08
9.80899e-09
1.02416e-08
1.12608e-08
1.25649e-08
1.31842e-08
1.38236e-08
1.40321e-08
1.39394e-08
1.37675e-08
1.33687e-08
1.26579e-08
1.17153e-08
1.0664e-08
9.58909e-09
8.54273e-09
7.55576e-09
6.64464e-09
5.81557e-09
5.06889e-09
4.40199e-09
3.81058e-09
3.28928e-09
2.83234e-09
2.43331e-09
2.08729e-09
1.78569e-09
1.52953e-09
1.30067e-09
1.11861e-09
9.40134e-10
8.17588e-10
6.7793e-10
5.94391e-10
4.88917e-10
4.35045e-10
3.47155e-10
3.2308e-10
2.46154e-10
1.02188e-08
9.00797e-09
8.37226e-09
8.14396e-09
8.59885e-09
9.66276e-09
1.06319e-08
1.17703e-08
1.23548e-08
1.26171e-08
1.27078e-08
1.24821e-08
1.19148e-08
1.11136e-08
1.02027e-08
9.25255e-09
8.30351e-09
7.38655e-09
6.52405e-09
5.7286e-09
5.00544e-09
4.35529e-09
3.77602e-09
3.26369e-09
2.81345e-09
2.41954e-09
2.07735e-09
1.77895e-09
1.52488e-09
1.29844e-09
1.11732e-09
9.40805e-10
8.19263e-10
6.80003e-10
5.99184e-10
4.92773e-10
4.417e-10
3.53852e-10
3.32313e-10
2.55406e-10
8.2172e-09
7.07104e-09
6.38444e-09
6.37e-09
7.05579e-09
8.25282e-09
9.29086e-09
1.04385e-08
1.12269e-08
1.1651e-08
1.18292e-08
1.17182e-08
1.12997e-08
1.06442e-08
9.851e-09
8.98973e-09
8.10722e-09
7.2397e-09
6.41342e-09
5.64432e-09
4.94039e-09
4.30441e-09
3.7357e-09
3.23137e-09
2.78723e-09
2.3981e-09
2.05953e-09
1.7643e-09
1.51221e-09
1.28843e-09
1.10791e-09
9.33935e-10
8.12894e-10
6.74399e-10
5.96584e-10
4.88539e-10
4.41324e-10
3.52674e-10
3.35278e-10
2.55867e-10
7.03093e-09
5.91185e-09
5.25051e-09
5.10201e-09
5.75458e-09
6.98912e-09
8.154e-09
9.3522e-09
1.02532e-08
1.07775e-08
1.10107e-08
1.09468e-08
1.05882e-08
9.99937e-09
9.26902e-09
8.46413e-09
7.63117e-09
6.80567e-09
6.01369e-09
5.27171e-09
4.58859e-09
3.96787e-09
3.40947e-09
2.91101e-09
2.46852e-09
2.07744e-09
1.73268e-09
1.42944e-09
1.16312e-09
9.29169e-10
7.268e-10
5.45469e-10
4.06236e-10
2.61999e-10
1.93199e-10
9.16122e-11
7.07677e-11
2.32605e-11
2.49244e-11
4.62301e-12
2.66811e-09
1.89409e-09
1.47436e-09
1.24521e-09
1.25829e-09
1.52605e-09
1.85258e-09
2.16703e-09
2.39989e-09
2.50217e-09
2.46127e-09
2.25559e-09
1.91765e-09
1.52259e-09
1.13589e-09
7.94427e-10
5.16317e-10
3.07994e-10
1.65852e-10
7.87256e-11
3.1758e-11
1.02234e-11
2.30434e-12
2.53859e-13
3.35583e-15
3.7187e-14
2.06837e-13
4.15707e-13
5.88381e-13
5.91613e-13
6.18182e-13
4.41878e-13
4.02291e-13
2.63814e-13
1.70592e-13
1.31557e-13
6.42655e-14
3.86556e-14
1.65381e-14
8.76319e-15
2.46115e-11
1.35701e-11
9.20913e-12
6.27942e-12
4.66317e-12
3.81685e-12
2.05129e-12
5.07044e-13
6.26145e-14
2.85998e-15
6.77014e-17
7.68234e-15
4.00675e-14
9.04811e-14
1.36219e-13
1.63616e-13
1.69785e-13
1.58579e-13
1.371e-13
1.11972e-13
8.75815e-14
6.6192e-14
4.86283e-14
3.48548e-14
2.44525e-14
1.67972e-14
1.13736e-14
7.48989e-15
5.00134e-15
3.06773e-15
2.13762e-15
1.14229e-15
8.49735e-16
4.32552e-16
2.5725e-16
1.70459e-16
7.02815e-17
4.05529e-17
1.27283e-17
6.26807e-18
9.83094e-15
3.10556e-15
1.00961e-15
4.76572e-16
1.32558e-16
3.54135e-17
5.04982e-16
1.95853e-15
4.10457e-15
4.33802e-15
3.55003e-15
2.74298e-15
2.03148e-15
1.38673e-15
8.68787e-16
5.0984e-16
2.84814e-16
1.53222e-16
8.03518e-17
4.15687e-17
2.14278e-17
1.10808e-17
5.77709e-18
3.03341e-18
1.61028e-18
8.51829e-19
4.60933e-19
2.369e-19
1.39409e-19
5.84409e-20
5.25608e-20
9.1795e-21
2.44887e-20
1.27273e-21
3.13774e-21
4.13968e-21
2.87893e-22
1.49009e-20
8.70041e-21
4.80114e-20
)
;

boundaryField
{
    inlet
    {
        type            calculated;
        value           nonuniform List<scalar> 
20
(
1.04901e-34
4.79744e-33
1.04167e-33
7.83484e-33
9.94635e-33
1.13919e-32
1.17471e-32
1.19885e-32
1.20929e-32
1.21505e-32
1.21729e-32
1.21706e-32
1.21191e-32
1.19612e-32
1.16533e-32
1.03533e-32
8.13817e-33
1.16666e-33
4.82654e-33
1.04473e-34
)
;
    }
    outlet
    {
        type            calculated;
        value           nonuniform List<scalar> 
27
(
8.56138e-34
5.91312e-34
3.21293e-34
1.29619e-34
3.5616e-35
4.481e-36
1.29064e-39
2.83413e-36
2.72898e-35
1.04801e-34
2.68653e-34
5.13696e-34
7.73486e-34
9.89657e-34
1.15357e-33
1.27154e-33
8.44585e-34
5.0484e-36
2.95337e-38
1.67714e-40
1.40867e-40
2.43421e-38
3.72191e-36
5.73247e-34
1.33027e-33
1.21419e-33
1.06186e-33
)
;
    }
    lowerWall
    {
        type            fixedValue;
        value           uniform 0;
    }
    upperWall
    {
        type            fixedValue;
        value           uniform 0;
    }
    defaultFaces
    {
        type            empty;
    }
}


// ************************************************************************* //
