/*--------------------------------*- C++ -*----------------------------------*\
| =========                 |                                                 |
| \\      /  F ield         | OpenFOAM: The Open Source CFD Toolbox           |
|  \\    /   O peration     | Version:  2112                                  |
|   \\  /    A nd           | Website:  www.openfoam.com                      |
|    \\/     M anipulation  |                                                 |
\*---------------------------------------------------------------------------*/
FoamFile
{
    version     2.0;
    format      ascii;
    arch        "LSB;label=32;scalar=64";
    class       volScalarField;
    location    "0.1";
    object      p;
}
// * * * * * * * * * * * * * * * * * * * * * * * * * * * * * * * * * * * * * //

dimensions      [0 2 -2 0 0 0 0];

internalField   nonuniform List<scalar> 
1880
(
0.00415158
0.0040179
0.00391994
0.00386512
0.00385157
0.00383752
0.00379819
0.00376262
0.00374874
0.00374081
0.00372896
0.00371995
0.00371874
0.00372355
0.00373169
0.00374387
0.00376061
0.00378484
0.00381434
0.00385662
0.00390342
0.00397317
0.00404511
0.00415707
0.00427241
0.00445003
0.00464682
0.00493314
0.00526852
0.00573015
0.00397163
0.00394552
0.00389592
0.00384388
0.00383276
0.00382725
0.00379058
0.00375393
0.0037425
0.00373828
0.00372714
0.00371718
0.0037155
0.00372014
0.00372745
0.00373844
0.00375356
0.00377621
0.00380339
0.00384284
0.00388642
0.00395023
0.0040179
0.00411666
0.00422386
0.00437101
0.00454257
0.00473647
0.00497209
0.00512964
0.00393921
0.00392566
0.0038866
0.00383729
0.00382636
0.00382284
0.0037884
0.00375401
0.00374517
0.00374215
0.00372975
0.00371725
0.00371299
0.00371513
0.00371989
0.00372798
0.00374027
0.00375882
0.00378256
0.00381492
0.003854
0.00390487
0.00396594
0.00404068
0.00413279
0.00423425
0.00436076
0.00448089
0.00461788
0.00469461
0.00388152
0.0038789
0.00385515
0.00381502
0.0038076
0.0038076
0.00377657
0.00374424
0.00373672
0.00373476
0.00372264
0.00370945
0.00370385
0.00370431
0.00370679
0.00371209
0.00372072
0.00373508
0.00375325
0.00377888
0.00380942
0.00384861
0.00389601
0.00395006
0.00401632
0.00408383
0.00416147
0.00422367
0.00428412
0.00426721
0.00385342
0.0038554
0.00383824
0.00380268
0.00379734
0.00379892
0.00376948
0.0037383
0.00373135
0.00372934
0.00371633
0.00370144
0.00369358
0.00369141
0.00369084
0.00369249
0.00369679
0.00370583
0.00371776
0.00373505
0.00375645
0.00378163
0.00381511
0.00384515
0.00388998
0.00391947
0.0039634
0.00397243
0.00397437
0.00391801
0.00382703
0.00383058
0.00381688
0.00378497
0.00378216
0.00378547
0.00375757
0.00372756
0.00372112
0.00371906
0.00370546
0.00368934
0.0036796
0.00367498
0.00367129
0.00366918
0.00366876
0.00367219
0.00367713
0.003686
0.00369695
0.00370923
0.00372665
0.00373787
0.00375732
0.00376252
0.00376554
0.003747
0.00369835
0.00361406
0.00380749
0.00381237
0.00380102
0.00377153
0.0037705
0.00377491
0.00374778
0.00371819
0.00371162
0.0037089
0.00369413
0.0036763
0.00366428
0.00365682
0.0036497
0.00364344
0.00363803
0.00363549
0.00363329
0.00363347
0.00363417
0.00363367
0.00363653
0.00362922
0.00362894
0.00360843
0.00358538
0.00353752
0.00345911
0.00335544
0.00379206
0.00379753
0.00378729
0.003759
0.00375895
0.00376393
0.00373715
0.00370763
0.00370073
0.00369721
0.00368118
0.00366159
0.00364727
0.00363695
0.00362633
0.00361587
0.00360544
0.00359692
0.00358764
0.00357942
0.00357013
0.00355813
0.00354699
0.00352476
0.00350494
0.003467
0.00341848
0.00335258
0.00325188
0.00312971
0.00378024
0.00378598
0.00377628
0.00374863
0.00374908
0.00375426
0.00372742
0.00369755
0.00368995
0.00368533
0.00366782
0.00364627
0.00362953
0.00361624
0.0036021
0.00358741
0.00357205
0.00355768
0.0035416
0.00352542
0.00350687
0.00348435
0.00346092
0.00342535
0.00338993
0.00333596
0.00326982
0.00318781
0.00307228
0.00293929
0.00377178
0.00377758
0.00376799
0.00374042
0.00374082
0.00374574
0.00371842
0.00368784
0.00367927
0.00367335
0.0036542
0.00363062
0.00361141
0.00359517
0.00357757
0.00355878
0.00353871
0.00351876
0.00349634
0.0034728
0.00344582
0.00341407
0.00337967
0.00333321
0.00328415
0.00321805
0.00313769
0.00304359
0.00291907
0.00277662
0.0037666
0.00377227
0.00376243
0.00373447
0.00373436
0.00373861
0.00371046
0.00367884
0.00366902
0.00366164
0.00364075
0.00361505
0.0035934
0.00357429
0.00355337
0.00353068
0.00350618
0.00348105
0.00345284
0.00342264
0.00338818
0.00334835
0.00330455
0.00324894
0.00318886
0.00311286
0.00302209
0.00291894
0.00278798
0.00264104
0.00376477
0.00377014
0.00375972
0.00373097
0.00372995
0.00373321
0.00370389
0.00367088
0.00365959
0.0036506
0.00362787
0.00360003
0.00357595
0.00355408
0.00353003
0.0035037
0.00347514
0.00344529
0.0034119
0.00337578
0.00333479
0.00328805
0.00323625
0.00317323
0.00310417
0.0030205
0.00292224
0.00281216
0.00267786
0.00252758
0.00376659
0.00377141
0.00375988
0.00372966
0.003727
0.00372874
0.00369792
0.0036634
0.00365046
0.00363985
0.00361536
0.00358551
0.0035592
0.00353479
0.00350789
0.00347829
0.00344611
0.00341207
0.00337414
0.00333287
0.00328628
0.00323371
0.00317527
0.00310627
0.0030301
0.00294063
0.00283701
0.00272205
0.00258558
0.00243436
0.00377279
0.00377693
0.00376407
0.0037321
0.00372763
0.00372766
0.00369506
0.00365857
0.00364377
0.00363099
0.0036045
0.0035725
0.00354391
0.00351706
0.00348755
0.00345499
0.00341961
0.00338191
0.00334008
0.0032944
0.00324313
0.00318571
0.00312185
0.0030481
0.00296645
0.00287262
0.00276535
0.00264694
0.00250979
0.0023584
0.00378339
0.0037859
0.00377013
0.003735
0.00372782
0.00372558
0.00369074
0.003652
0.00363518
0.00362096
0.00359302
0.00355954
0.0035292
0.00350045
0.00346884
0.00343387
0.00339586
0.00335512
0.00331006
0.00326073
0.00320563
0.00314427
0.0030761
0.00299864
0.00291285
0.00281583
0.00270614
0.00258556
0.00244842
0.00229778
0.00380293
0.00380371
0.00378416
0.00374486
0.0037344
0.00372947
0.0036919
0.00365057
0.00363155
0.00361516
0.00358499
0.00355019
0.00351712
0.00348632
0.00345275
0.00341567
0.00337544
0.00333216
0.00328445
0.00323216
0.00317399
0.00310952
0.003038
0.00295773
0.00286889
0.0027696
0.00265841
0.00253654
0.00240003
0.00225056
0.00382389
0.00381995
0.00379352
0.00374913
0.00373586
0.00372844
0.00368811
0.0036441
0.00362265
0.00360415
0.0035724
0.00353529
0.00350371
0.00347273
0.00343823
0.00339988
0.00335815
0.00331304
0.00326335
0.00320882
0.00314832
0.00308149
0.00300746
0.00292515
0.00283414
0.00273332
0.0026213
0.00249878
0.00236317
0.00221513
0.00387746
0.00386235
0.00382024
0.0037662
0.00374886
0.00373721
0.00369261
0.00364558
0.00362175
0.00360094
0.00356745
0.00352968
0.00349675
0.00346326
0.00342736
0.00338782
0.00334487
0.00329835
0.00324717
0.00319098
0.00312877
0.00306024
0.0029844
0.00290069
0.00280819
0.00270648
0.00259408
0.00247137
0.00233677
0.00219012
0.00390578
0.00387809
0.00382527
0.00376816
0.00375014
0.00373588
0.00368817
0.00363786
0.00361039
0.00358724
0.00355367
0.00351677
0.00348337
0.00345253
0.00341757
0.00337815
0.0033349
0.00328774
0.00323573
0.00317857
0.00311527
0.00304575
0.0029687
0.00288422
0.00279071
0.00268852
0.00257612
0.00245351
0.00232004
0.00217467
0.00408425
0.00394883
0.00384739
0.00378724
0.00376652
0.00374329
0.00369244
0.00364281
0.00361253
0.00358536
0.00355076
0.00351448
0.00348134
0.00344894
0.00341328
0.00337367
0.00333017
0.00328258
0.00323013
0.00317244
0.00310866
0.00303859
0.00296106
0.00287614
0.00278228
0.00267989
0.00256759
0.0024454
0.00231306
0.00217001
0.00607251
0.00502844
0.00438347
0.00397716
0.00296472
0.00232805
0.00185653
-0.000356287
-0.000431111
-0.00314309
0.00529359
0.00429091
0.00377161
0.00342912
0.00216095
0.00177237
0.000796095
-0.000643461
-0.00181034
-0.00360386
0.00472322
0.00415176
0.00367288
0.00319517
0.00232029
0.00171155
0.000860781
-0.000538682
-0.00178665
-0.00287115
0.00421447
0.00370797
0.00317048
0.00271615
0.00192362
0.00130781
0.000582885
-0.000499487
-0.00153829
-0.00231928
0.00382652
0.00344138
0.00299602
0.00253253
0.00191436
0.00126747
0.000574956
-0.000335094
-0.00120255
-0.00180499
0.00349276
0.00313696
0.00268646
0.00220515
0.00167913
0.00104919
0.000401399
-0.000316711
-0.00107347
-0.0015687
0.00322017
0.00290398
0.00250289
0.00207695
0.00159613
0.00102973
0.000452458
-0.000173999
-0.000775045
-0.0012234
0.00298124
0.00268377
0.00231574
0.0018861
0.00145366
0.000945411
0.000403517
-0.000119426
-0.000629426
-0.0010258
0.00278377
0.00251671
0.00216957
0.00179437
0.00139011
0.000929925
0.000466848
1.13492e-05
-0.000416143
-0.000771484
0.00261771
0.00236162
0.00205002
0.00169131
0.00131475
0.000906493
0.000489446
8.97107e-05
-0.000282046
-0.000599864
0.00247815
0.00224444
0.0019528
0.00162862
0.00128046
0.000910924
0.000547223
0.000195668
-0.000131103
-0.000415694
0.00236447
0.00214221
0.00187556
0.00157403
0.00125005
0.000916291
0.000591175
0.000275237
-1.89079e-05
-0.000277446
0.00227038
0.00206253
0.00181459
0.00153699
0.00123821
0.00093455
0.00064113
0.000356754
8.95297e-05
-0.000147915
0.00219519
0.00199728
0.00176679
0.00150923
0.0012325
0.000953185
0.000684857
0.000423842
0.000177125
-4.34584e-05
0.00213538
0.00194631
0.00173015
0.00149056
0.00123397
0.00097569
0.000726483
0.000484801
0.000254816
4.68377e-05
0.00208953
0.00190709
0.00170266
0.00147829
0.00123925
0.000997601
0.000763399
0.000535913
0.000318782
0.00012082
0.0020556
0.00187834
0.00168308
0.0014712
0.00124668
0.0010186
0.000795635
0.00057911
0.000371983
0.000181422
0.00203245
0.00185937
0.00167123
0.00146913
0.0012562
0.00103805
0.0008233
0.000614405
0.000414486
0.000228987
0.00201797
0.00184793
0.00166517
0.00147004
0.00126548
0.00105501
0.000845853
0.000642169
0.000446875
0.000264564
0.00201625
0.00184958
0.00167034
0.00147906
0.00127831
0.00107152
0.000865212
0.000663749
0.000470663
0.000288763
-0.00645074
-0.00685415
-0.00820408
-0.00990493
-0.00870535
-0.00596765
-0.00334643
-0.0013364
-8.32175e-05
0.000668585
0.00106624
0.00124253
0.00128563
0.0012532
0.00118201
0.00109438
0.00100297
0.000914396
0.000831716
0.000755994
0.000687247
0.000624993
0.000568552
0.000517206
0.000470272
0.000427127
0.000387219
0.000350065
0.000315258
0.000282435
0.000251313
0.000221599
0.000193095
0.000165571
0.000138852
0.000112805
8.72355e-05
6.207e-05
3.71471e-05
1.2387e-05
-0.00676042
-0.00704161
-0.00874079
-0.0109939
-0.00989774
-0.0066252
-0.00375266
-0.00152175
-0.000216528
0.000587393
0.00101363
0.00120515
0.00125662
0.00122932
0.0011618
0.00107715
0.000988371
0.000902151
0.000821529
0.000747561
0.000680276
0.000619222
0.000563763
0.000513223
0.00046695
0.000424348
0.00038489
0.00034811
0.000313615
0.000281056
0.000250155
0.000220633
0.000192288
0.00016491
0.000138309
0.000112373
8.69013e-05
6.18242e-05
3.69958e-05
1.23313e-05
-0.00705149
-0.00758522
-0.0100719
-0.013579
-0.0126764
-0.0083205
-0.00468154
-0.00198383
-0.000475416
0.000420289
0.000897116
0.00111971
0.00119126
0.00117751
0.00111979
0.00104282
0.000960316
0.000879283
0.000802911
0.000732385
0.000667869
0.000609036
0.000555362
0.000506264
0.000461163
0.000419519
0.000380848
0.000344722
0.000310772
0.000278673
0.000248157
0.000218969
0.000190905
0.000163774
0.000137391
0.000111642
8.63496e-05
6.14324e-05
3.67618e-05
1.2252e-05
-0.00800124
-0.00841397
-0.0117455
-0.0170845
-0.0169323
-0.011137
-0.00614121
-0.0027322
-0.00086675
0.000188842
0.000742379
0.00100617
0.00110399
0.00110867
0.00106451
0.000997977
0.000923796
0.000849473
0.00077853
0.000712394
0.000651426
0.000595465
0.000544121
0.000496919
0.00045337
0.000413002
0.000375385
0.000340136
0.000306921
0.000275442
0.000245449
0.000216711
0.000189031
0.000162235
0.000136147
0.000110657
8.56072e-05
6.09111e-05
3.64531e-05
1.2151e-05
-0.00825806
-0.00915312
-0.013149
-0.0205918
-0.0208864
-0.0138717
-0.00752043
-0.00358583
-0.00132976
-8.42989e-05
0.000560849
0.000871218
0.000998077
0.00102376
0.000995605
0.0009418
0.000877968
0.000812083
0.000747985
0.000687376
0.000630863
0.000578498
0.000530066
0.000485232
0.000443619
0.000404844
0.000368544
0.000334393
0.000302096
0.000271392
0.000242056
0.000213879
0.000186681
0.000160305
0.000134588
0.000109428
8.46805e-05
6.02633e-05
3.60694e-05
1.20226e-05
-0.00789087
-0.00756277
-0.0118411
-0.0202099
-0.0216037
-0.0149129
-0.00821315
-0.00394938
-0.00154215
-0.000228746
0.000438333
0.000757455
0.000895406
0.000935175
0.000921028
0.000879979
0.000826953
0.00077002
0.000713287
0.000658707
0.000607125
0.000558796
0.000513671
0.000471552
0.000432173
0.000395247
0.000360484
0.000327616
0.000296397
0.000266604
0.000238041
0.000210527
0.0001839
0.000158021
0.000132744
0.000107975
8.35852e-05
5.94985e-05
3.5617e-05
1.18719e-05
-0.00760762
-0.00776786
-0.00976677
-0.0178595
-0.0199178
-0.0143216
-0.00820208
-0.00406197
-0.00159263
-0.000254324
0.000369675
0.000670563
0.000807929
0.000850628
0.000842256
0.000810936
0.000768782
0.000721923
0.00067374
0.000626157
0.000580242
0.000536507
0.000495123
0.000456064
0.000419201
0.000384356
0.000351325
0.000319906
0.000289905
0.000261144
0.000233459
0.000206698
0.000180722
0.000155411
0.000130635
0.000106315
8.23341e-05
5.86252e-05
3.51011e-05
1.17001e-05
-0.00754293
-0.00702046
-0.00773759
-0.0143575
-0.0165513
-0.0120812
-0.0071724
-0.00378057
-0.00171974
-0.000479029
0.000195887
0.000541253
0.000707335
0.000768515
0.000769797
0.000747946
0.000714035
0.000674541
0.000633103
0.000591642
0.000551118
0.000512007
0.000474527
0.000438746
0.000404627
0.000372077
0.000340971
0.000311172
0.000282541
0.000254942
0.000228249
0.000202341
0.000177103
0.000152437
0.000128233
0.000104424
8.09081e-05
5.76299e-05
3.45134e-05
1.15042e-05
-0.00583255
-0.00645491
-0.00677065
-0.0104933
-0.011725
-0.00893181
-0.00577879
-0.0032618
-0.00164439
-0.000880474
-0.00039018
0.000119775
0.000490144
0.00063373
0.000662397
0.000659055
0.000639952
0.000614034
0.000584047
0.000551642
0.000518183
0.000484661
0.000451685
0.000419585
0.000388505
0.000358482
0.000329491
0.000301473
0.000274349
0.000248033
0.000222438
0.000197476
0.00017306
0.000149112
0.000125545
0.000102307
7.93127e-05
5.6516e-05
3.38557e-05
1.12852e-05
-0.00432058
-0.00522063
-0.00561089
-0.00735121
-0.00795747
-0.00657498
-0.00468479
-0.00287997
-0.00155276
-0.00101268
-0.000709592
-0.000277789
0.000115015
0.000379942
0.00051831
0.00057274
0.000581309
0.000566604
0.000542461
0.000514927
0.000486234
0.000457212
0.000428276
0.000399689
0.000371621
0.000344164
0.000317352
0.000291187
0.000265642
0.000240676
0.000216242
0.000192282
0.000168739
0.000145557
0.00012267
0.000100042
7.76043e-05
5.53229e-05
3.31509e-05
1.10504e-05
-0.00320141
-0.00405338
-0.00452154
-0.00553785
-0.00594811
-0.00497041
-0.00361385
-0.00222776
-0.00126922
-0.00095268
-0.000658053
-0.000154908
0.000235136
0.000406384
0.000475498
0.00049576
0.000500648
0.00049724
0.000486814
0.000470637
0.000450388
0.000427657
0.000403592
0.000378912
0.000354054
0.000329273
0.000304715
0.000280461
0.000256547
0.000232979
0.00020975
0.000186834
0.000164201
0.000141821
0.000119646
9.76583e-05
7.58059e-05
5.40664e-05
3.24088e-05
1.08034e-05
-0.00252297
-0.00325083
-0.00365455
-0.00415635
-0.00437846
-0.00382531
-0.00299759
-0.00210171
-0.00142762
-0.00119504
-0.000856616
-0.000192379
0.000309994
0.000472387
0.000497382
0.00049294
0.000482663
0.000469301
0.000453973
0.000437312
0.000419356
0.000400055
0.000379582
0.000358245
0.000336351
0.000314147
0.000291812
0.000269471
0.000247202
0.000225054
0.000203054
0.000181206
0.000159509
0.000137954
0.000116514
9.5188e-05
7.39412e-05
5.27634e-05
3.16392e-05
1.05472e-05
-0.00205318
-0.00258922
-0.00295455
-0.00333809
-0.00344619
-0.00303524
-0.00235745
-0.00164138
-0.00112653
-0.000914033
-0.00071275
-0.000430306
-0.000140177
7.98766e-05
0.000221814
0.00030701
0.000356307
0.000382338
0.000392434
0.000391499
0.000383296
0.000370509
0.000354823
0.000337265
0.00031848
0.000298892
0.000278785
0.000258354
0.000237732
0.000217007
0.000196244
0.000175475
0.000154725
0.000134007
0.000113316
9.26634e-05
7.20347e-05
5.14309e-05
3.0852e-05
1.02851e-05
-0.00162949
-0.00205217
-0.00233689
-0.00257473
-0.0026986
-0.00247422
-0.00204944
-0.0016387
-0.00125036
-0.000842157
-0.000469041
-0.000135951
9.93313e-05
0.000232296
0.00030221
0.000338524
0.000356067
0.000362961
0.000363786
0.000360542
0.000353801
0.000343933
0.00033147
0.000316982
0.000300967
0.000283822
0.000265849
0.000247274
0.000228266
0.000208947
0.00018941
0.000169715
0.000149912
0.000130033
0.000110091
9.01168e-05
7.01107e-05
5.00857e-05
3.00572e-05
1.00205e-05
-0.00132985
-0.00166167
-0.00191231
-0.00210225
-0.00217458
-0.00202909
-0.00170303
-0.00131464
-0.000947944
-0.000703998
-0.000517162
-0.000333808
-0.000150183
9.11379e-07
0.00011549
0.000199041
0.000256419
0.000292636
0.000312639
0.000321044
0.000321603
0.000316833
0.000308311
0.000297067
0.00028381
0.000269043
0.000253136
0.000236359
0.000218921
0.000200973
0.000182638
0.000164
0.00014513
0.000126079
0.000106881
8.75801e-05
6.81934e-05
4.87448e-05
2.92648e-05
9.75666e-06
-0.00103892
-0.00129623
-0.00149838
-0.00165341
-0.0017361
-0.001654
-0.00143568
-0.00120146
-0.000953805
-0.000682517
-0.000447413
-0.000221415
-4.35547e-05
7.72041e-05
0.000157135
0.000210256
0.000245356
0.00026855
0.000283453
0.000291698
0.000294324
0.000292347
0.000286699
0.000278162
0.00026736
0.000254784
0.000240815
0.000225746
0.00020981
0.000193182
0.00017601
0.000158398
0.000140436
0.000122195
0.000103726
8.50845e-05
6.63062e-05
4.74246e-05
2.84844e-05
9.49674e-06
-0.000823633
-0.00104476
-0.0012312
-0.00135406
-0.00141346
-0.00138107
-0.00122779
-0.0010056
-0.000768384
-0.000574827
-0.000413976
-0.000270731
-0.000139258
-2.65576e-05
6.44741e-05
0.000135343
0.000187639
0.000223697
0.000246949
0.000260723
0.000267462
0.000268861
0.000266137
0.000260185
0.000251686
0.000241158
0.000229006
0.000215547
0.000201034
0.000185664
0.000169603
0.000152974
0.000135887
0.000118427
0.000100662
8.26599e-05
6.44718e-05
4.61407e-05
2.77252e-05
9.2439e-06
-0.000622241
-0.000804443
-0.000960268
-0.00107953
-0.00114584
-0.00113
-0.00102669
-0.00087673
-0.000717487
-0.000555221
-0.000397944
-0.000249867
-0.000118591
-1.56657e-05
6.16032e-05
0.000119875
0.000163856
0.000196399
0.000219474
0.000234758
0.000243698
0.000247497
0.00024714
0.000243422
0.000236976
0.000228311
0.000217833
0.000205869
0.000192687
0.000178499
0.000163488
0.000147791
0.000131535
0.000114819
9.77251e-05
8.03347e-05
6.27118e-05
4.49084e-05
2.69964e-05
9.00111e-06
-0.000465598
-0.000633977
-0.000778734
-0.000882098
-0.000939124
-0.000945823
-0.000883339
-0.000764023
-0.00062128
-0.000483024
-0.000357267
-0.000239447
-0.000134942
-4.58782e-05
2.78433e-05
8.70682e-05
0.000133136
0.000167858
0.000193133
0.000210658
0.000221852
0.000227866
0.000229635
0.000227914
0.000223317
0.000216341
0.000207393
0.000196805
0.000184854
0.000171763
0.00015773
0.000142905
0.000127428
0.000111411
9.49495e-05
7.81357e-05
6.10464e-05
4.37419e-05
2.63062e-05
8.77122e-06
-0.000326832
-0.000477093
-0.000607951
-0.000707799
-0.00076936
-0.000785514
-0.000744868
-0.000657699
-0.000550314
-0.000441539
-0.000335807
-0.000233625
-0.000139324
-5.74416e-05
1.06494e-05
6.60543e-05
0.000110262
0.000144682
0.000170685
0.000189547
0.000202395
0.000210194
0.000213758
0.000213772
0.000210808
0.000205343
0.000197774
0.000188434
0.000177606
0.000165522
0.000152388
0.000138367
0.00012361
0.00010824
9.23658e-05
7.60876e-05
5.94945e-05
4.26545e-05
2.56628e-05
8.55683e-06
-0.000214167
-0.000358753
-0.000485297
-0.00057692
-0.000636098
-0.000660787
-0.000640594
-0.000577658
-0.000492308
-0.000401752
-0.000311611
-0.000223573
-0.000141109
-6.78831e-05
-5.26515e-06
4.71072e-05
9.00033e-05
0.000124283
0.000150913
0.00017088
0.000185107
0.000194415
0.000199521
0.000201044
0.000199515
0.000195387
0.000189048
0.000180828
0.000171011
0.000159835
0.000147516
0.000134224
0.000120122
0.000105341
9.00023e-05
7.42129e-05
5.80734e-05
4.16585e-05
2.50731e-05
8.36032e-06
-0.000119351
-0.000257686
-0.000375042
-0.000465742
-0.000527139
-0.000558713
-0.000552273
-0.000507658
-0.000441019
-0.000366953
-0.000291034
-0.000215127
-0.000142347
-7.61046e-05
-1.80915e-05
3.14925e-05
7.29774e-05
0.000106877
0.000133851
0.00015464
0.000169973
0.000180537
0.000186952
0.000189774
0.000189492
0.000186535
0.000181278
0.000174045
0.000165123
0.000154755
0.00014316
0.000130518
0.000117
0.000102745
8.78843e-05
7.2532e-05
5.67984e-05
4.07646e-05
2.45436e-05
8.18378e-06
-4.1962e-05
-0.000177449
-0.000292254
-0.000380694
-0.000442886
-0.000478808
-0.000482261
-0.000452138
-0.000400471
-0.000339482
-0.000274663
-0.000208295
-0.00014335
-8.29551e-05
-2.89052e-05
1.82392e-05
5.84592e-05
9.1976e-05
0.000119196
0.000140648
0.000156903
0.000168526
0.000176056
0.00017999
0.000180781
0.000178835
0.000174514
0.000168138
0.000159993
0.000150326
0.000139362
0.000127285
0.000114276
0.000100478
8.60343e-05
7.10626e-05
5.56832e-05
3.99824e-05
2.40796e-05
8.02899e-06
2.03993e-05
-0.00011408
-0.000226642
-0.000314282
-0.000377486
-0.000416681
-0.000427525
-0.000408683
-0.000368912
-0.000318343
-0.000262365
-0.000203619
-0.000144942
-8.92281e-05
-3.83515e-05
6.84599e-06
4.60677e-05
7.93023e-05
0.000106755
0.000128785
0.000145829
0.000158358
0.000166837
0.000171717
0.000173418
0.000172329
0.0001688
0.00016315
0.000155663
0.000146589
0.000136156
0.000124557
0.000111976
9.85635e-05
8.44716e-05
6.98194e-05
5.47389e-05
3.93194e-05
2.36855e-05
7.89676e-06
6.86477e-05
-6.58956e-05
-0.000177952
-0.000265608
-0.00032948
-0.000370782
-0.000387048
-0.000376861
-0.000346254
-0.000303648
-0.000254428
-0.000201515
-0.00014762
-9.54388e-05
-4.69082e-05
-3.09206e-06
3.54875e-05
6.86312e-05
9.63832e-05
0.000118968
0.00013672
0.000150033
0.000159318
0.000164991
0.000167449
0.000167066
0.000164188
0.00015913
0.000152178
0.000143586
0.000133581
0.000122368
0.00011013
9.70275e-05
8.32177e-05
6.88193e-05
5.39792e-05
3.87842e-05
2.33672e-05
7.79213e-06
0.000103308
-3.33602e-05
-0.00014595
-0.000233775
-0.000297975
-0.000340621
-0.000360867
-0.000357248
-0.000333573
-0.000296699
-0.000252055
-0.000202977
-0.000152175
-0.00010221
-5.50516e-05
-1.19322e-05
2.64561e-05
5.97748e-05
8.79513e-05
0.000111114
0.000129525
0.000143523
0.000153489
0.000159814
0.000162881
0.00016306
0.000160692
0.000156095
0.000149553
0.000141331
0.000131649
0.000120731
0.000108748
9.58779e-05
8.22796e-05
6.80654e-05
5.34067e-05
3.83765e-05
2.31209e-05
7.70697e-06
0.000124977
-1.4325e-05
-0.000128895
-0.000217486
-0.00028165
-0.000324678
-0.000346757
-0.000346516
-0.000326719
-0.00029339
-0.000251633
-0.000204862
-0.000155846
-0.000107104
-6.06394e-05
-1.77984e-05
2.06063e-05
5.41432e-05
8.26676e-05
0.000106251
0.000125113
0.000139566
0.000149971
0.000156708
0.000160155
0.000160679
0.000158623
0.000154304
0.000148009
0.000140005
0.000130515
0.00011977
0.000107934
9.52016e-05
8.17215e-05
6.76161e-05
5.30578e-05
3.81214e-05
2.29616e-05
7.64773e-06
)
;

boundaryField
{
    inlet
    {
        type            zeroGradient;
    }
    outlet
    {
        type            fixedValue;
        value           uniform 0;
    }
    lowerWall
    {
        type            zeroGradient;
    }
    upperWall
    {
        type            zeroGradient;
    }
    defaultFaces
    {
        type            empty;
    }
}


// ************************************************************************* //
