/*--------------------------------*- C++ -*----------------------------------*\
| =========                 |                                                 |
| \\      /  F ield         | OpenFOAM: The Open Source CFD Toolbox           |
|  \\    /   O peration     | Version:  2112                                  |
|   \\  /    A nd           | Website:  www.openfoam.com                      |
|    \\/     M anipulation  |                                                 |
\*---------------------------------------------------------------------------*/
FoamFile
{
    version     2.0;
    format      ascii;
    arch        "LSB;label=32;scalar=64";
    class       surfaceScalarField;
    location    "0.1";
    object      phi;
}
// * * * * * * * * * * * * * * * * * * * * * * * * * * * * * * * * * * * * * //

dimensions      [0 3 -1 0 0 0 0];

oriented        oriented;

internalField   nonuniform List<scalar> 
3653
(
9.92754e-07
7.24573e-09
9.78679e-07
1.40757e-08
9.64658e-07
1.40203e-08
9.50366e-07
1.42922e-08
9.34122e-07
1.62444e-08
9.16376e-07
1.77458e-08
8.98222e-07
1.81544e-08
8.80907e-07
1.73143e-08
8.66159e-07
1.47479e-08
8.54985e-07
1.11739e-08
8.46977e-07
8.00834e-09
8.4114e-07
5.83671e-09
8.3663e-07
4.51083e-09
8.32874e-07
3.75523e-09
8.29324e-07
3.54992e-09
8.25773e-07
3.55119e-09
8.21623e-07
4.14978e-09
8.1737e-07
4.25339e-09
8.11414e-07
5.9561e-09
8.06083e-07
5.33086e-09
7.96591e-07
9.49175e-09
7.89818e-07
6.77361e-09
7.74299e-07
1.5519e-08
7.6441e-07
9.88881e-09
7.399e-07
2.45099e-08
7.21597e-07
1.8303e-08
6.81543e-07
4.00542e-08
6.42256e-07
3.92873e-08
5.65665e-07
7.65909e-08
1.05487e-07
4.60178e-07
1.00301e-06
4.23521e-09
1.00668e-06
1.04086e-08
1.00871e-06
1.199e-08
1.01026e-06
1.27401e-08
1.01194e-06
1.45648e-08
1.01328e-06
1.64101e-08
1.01396e-06
1.7468e-08
1.01386e-06
1.74156e-08
1.01274e-06
1.58652e-08
1.01069e-06
1.32308e-08
1.0081e-06
1.05916e-08
1.00533e-06
8.61329e-09
1.00245e-06
7.38731e-09
9.99447e-07
6.75812e-09
9.96257e-07
6.73981e-09
9.92763e-07
7.04515e-09
9.88879e-07
8.03385e-09
9.84396e-07
8.73647e-09
9.79218e-07
1.11336e-08
9.7309e-07
1.14588e-08
9.6559e-07
1.69927e-08
9.57173e-07
1.51903e-08
9.4532e-07
2.73722e-08
9.3379e-07
2.14187e-08
9.1465e-07
4.365e-08
8.96268e-07
3.66846e-08
8.68627e-07
6.76949e-08
8.33613e-07
7.43015e-08
7.98788e-07
1.11416e-07
1.48794e-07
7.55481e-07
1.00178e-06
2.45742e-09
1.00515e-06
7.03271e-09
1.00763e-06
9.51241e-09
1.00967e-06
1.06986e-08
1.01217e-06
1.20638e-08
1.01488e-06
1.37055e-08
1.01727e-06
1.50798e-08
1.01896e-06
1.57194e-08
1.01953e-06
1.53013e-08
1.01878e-06
1.39762e-08
1.01703e-06
1.23432e-08
1.01471e-06
1.09343e-08
1.01209e-06
1.00098e-08
1.00927e-06
9.57907e-09
1.00628e-06
9.72998e-09
1.00306e-06
1.02607e-08
9.99561e-07
1.1532e-08
9.95516e-07
1.2782e-08
9.91111e-07
1.55384e-08
9.85486e-07
1.70837e-08
9.79771e-07
2.27073e-08
9.7155e-07
2.34113e-08
9.6369e-07
3.52325e-08
9.52124e-07
3.29849e-08
9.39826e-07
5.59479e-08
9.2508e-07
5.14309e-08
9.06262e-07
8.65125e-08
8.89076e-07
9.14881e-08
8.66441e-07
1.34051e-07
1.66897e-07
8.48337e-07
1.00081e-06
1.6509e-09
1.00272e-06
5.12378e-09
1.00462e-06
7.60406e-09
1.00635e-06
8.97238e-09
1.0083e-06
1.01168e-08
1.01047e-06
1.15367e-08
1.01254e-06
1.30016e-08
1.0142e-06
1.40614e-08
1.01512e-06
1.43788e-08
1.01516e-06
1.39419e-08
1.01441e-06
1.30891e-08
1.0131e-06
1.22453e-08
1.01139e-06
1.17185e-08
1.00936e-06
1.16145e-08
1.00704e-06
1.20508e-08
1.00439e-06
1.29027e-08
1.00144e-06
1.44853e-08
9.97989e-07
1.62343e-08
9.94165e-07
1.9363e-08
9.89449e-07
2.17999e-08
9.8448e-07
2.76762e-08
9.77743e-07
3.01476e-08
9.7152e-07
4.14563e-08
9.61605e-07
4.28993e-08
9.54374e-07
6.31796e-08
9.40539e-07
6.52652e-08
9.32906e-07
9.41454e-08
9.17694e-07
1.067e-07
9.1212e-07
1.39624e-07
1.71042e-07
9.07976e-07
1.00039e-06
1.26274e-09
1.00167e-06
3.84535e-09
1.00321e-06
6.06015e-09
1.00472e-06
7.46724e-09
1.00635e-06
8.47943e-09
1.0082e-06
9.69384e-09
1.01006e-06
1.11359e-08
1.01169e-06
1.24318e-08
1.01283e-06
1.3236e-08
1.01332e-06
1.34514e-08
1.01316e-06
1.32565e-08
1.01243e-06
1.29675e-08
1.01128e-06
1.28712e-08
1.00977e-06
1.31229e-08
1.00797e-06
1.385e-08
1.00584e-06
1.50351e-08
1.00346e-06
1.6869e-08
1.00058e-06
1.91124e-08
9.97536e-07
2.24072e-08
9.93581e-07
2.57547e-08
9.89822e-07
3.14357e-08
9.84315e-07
3.56548e-08
9.79959e-07
4.58122e-08
9.72506e-07
5.03524e-08
9.68059e-07
6.76265e-08
9.59168e-07
7.41556e-08
9.55677e-07
9.76368e-08
9.47837e-07
1.1454e-07
9.48999e-07
1.38462e-07
1.74663e-07
9.45379e-07
1.00031e-06
9.54119e-10
1.00121e-06
2.94284e-09
1.00243e-06
4.8396e-09
1.00373e-06
6.1658e-09
1.00513e-06
7.0865e-09
1.00667e-06
8.14771e-09
1.00829e-06
9.51459e-09
1.00981e-06
1.0917e-08
1.01102e-06
1.20217e-08
1.01179e-06
1.26813e-08
1.01207e-06
1.29824e-08
1.01187e-06
1.31607e-08
1.01128e-06
1.34634e-08
1.01034e-06
1.4066e-08
1.0091e-06
1.50871e-08
1.00755e-06
1.65852e-08
1.00577e-06
1.86524e-08
1.00359e-06
2.12862e-08
1.00129e-06
2.47111e-08
9.98344e-07
2.87006e-08
9.95616e-07
3.41633e-08
9.91661e-07
3.96103e-08
9.88909e-07
4.85637e-08
9.83778e-07
5.54843e-08
9.81864e-07
6.95398e-08
9.76362e-07
7.9658e-08
9.7606e-07
9.79386e-08
9.74269e-07
1.16331e-07
9.757e-07
1.37031e-07
1.63864e-07
9.86498e-07
1.00022e-06
7.36889e-10
1.00089e-06
2.26719e-09
1.00188e-06
3.85208e-09
1.00302e-06
5.02357e-09
1.00429e-06
5.81857e-09
1.00572e-06
6.71569e-09
1.00727e-06
7.96846e-09
1.00878e-06
9.40303e-09
1.0101e-06
1.07073e-08
1.01109e-06
1.16923e-08
1.01169e-06
1.23799e-08
1.0119e-06
1.29489e-08
1.01176e-06
1.36057e-08
1.0113e-06
1.45271e-08
1.01057e-06
1.58122e-08
1.00958e-06
1.75799e-08
1.0084e-06
1.98298e-08
1.00693e-06
2.276e-08
1.0054e-06
2.6233e-08
1.00344e-06
3.06611e-08
1.00177e-06
3.58416e-08
9.99323e-07
4.20529e-08
9.97954e-07
4.99325e-08
9.95204e-07
5.82344e-08
9.95112e-07
6.96318e-08
9.92913e-07
8.18566e-08
9.95348e-07
9.55038e-08
9.96311e-07
1.15368e-07
1.00365e-06
1.29694e-07
1.57646e-07
1.00987e-06
1.00018e-06
5.5557e-10
1.00075e-06
1.70225e-09
1.00162e-06
2.9775e-09
1.00267e-06
3.97257e-09
1.00386e-06
4.63077e-09
1.00521e-06
5.3639e-09
1.0067e-06
6.47726e-09
1.00822e-06
7.88164e-09
1.00963e-06
9.2966e-09
1.01082e-06
1.05099e-08
1.0117e-06
1.14956e-08
1.01226e-06
1.23853e-08
1.01253e-06
1.33432e-08
1.01252e-06
1.45377e-08
1.01228e-06
1.60483e-08
1.01183e-06
1.80317e-08
1.01125e-06
2.04131e-08
1.01047e-06
2.35358e-08
1.00971e-06
2.69956e-08
1.00871e-06
3.16615e-08
1.00803e-06
3.65226e-08
1.00696e-06
4.31221e-08
1.00688e-06
5.00122e-08
1.0061e-06
5.90151e-08
1.00747e-06
6.82592e-08
1.00811e-06
8.12135e-08
1.01165e-06
9.19653e-08
1.01673e-06
1.10293e-07
1.02307e-06
1.23347e-07
1.44511e-07
1.03621e-06
1.00017e-06
3.89587e-10
1.00068e-06
1.19065e-09
1.00149e-06
2.16937e-09
1.00249e-06
2.96852e-09
1.00365e-06
3.47343e-09
1.00498e-06
4.0305e-09
1.00648e-06
4.97865e-09
1.00805e-06
6.30609e-09
1.00958e-06
7.76952e-09
1.01095e-06
9.1423e-09
1.01209e-06
1.03581e-08
1.01296e-06
1.15086e-08
1.01359e-06
1.27195e-08
1.01398e-06
1.41417e-08
1.0142e-06
1.58338e-08
1.01426e-06
1.79726e-08
1.01424e-06
2.04336e-08
1.01412e-06
2.36494e-08
1.01407e-06
2.70468e-08
1.01397e-06
3.17617e-08
1.01419e-06
3.63013e-08
1.01437e-06
4.29453e-08
1.0154e-06
4.89835e-08
1.01629e-06
5.81256e-08
1.01898e-06
6.55711e-08
1.02159e-06
7.85974e-08
1.02684e-06
8.67209e-08
1.03318e-06
1.03954e-07
1.04252e-06
1.14005e-07
1.33182e-07
1.05385e-06
1.00016e-06
2.28163e-10
1.00066e-06
6.94547e-10
1.00145e-06
1.3725e-09
1.00246e-06
1.96022e-09
1.00364e-06
2.29968e-09
1.00499e-06
2.67225e-09
1.00654e-06
3.43589e-09
1.00819e-06
4.6502e-09
1.00985e-06
6.1125e-09
1.0114e-06
7.59042e-09
1.01277e-06
8.98618e-09
1.01393e-06
1.03518e-08
1.01488e-06
1.17735e-08
1.01564e-06
1.33785e-08
1.01627e-06
1.5208e-08
1.01679e-06
1.74452e-08
1.01729e-06
1.99374e-08
1.01778e-06
2.31549e-08
1.01839e-06
2.64443e-08
1.0191e-06
3.10512e-08
1.02013e-06
3.5269e-08
1.02138e-06
4.16912e-08
1.02336e-06
4.70064e-08
1.02565e-06
5.58339e-08
1.02931e-06
6.19169e-08
1.03365e-06
7.42506e-08
1.03968e-06
8.06972e-08
1.04779e-06
9.58418e-08
1.05721e-06
1.04579e-07
1.20164e-07
1.07023e-06
1.00017e-06
6.06182e-11
1.00068e-06
1.79662e-10
1.00151e-06
5.43999e-10
1.00257e-06
9.05826e-10
1.00379e-06
1.0728e-09
1.00521e-06
1.25281e-09
1.00683e-06
1.81289e-09
1.0086e-06
2.88423e-09
1.0104e-06
4.30991e-09
1.01214e-06
5.85727e-09
1.01372e-06
7.3991e-09
1.01513e-06
8.94555e-09
1.01636e-06
1.05433e-08
1.01744e-06
1.22936e-08
1.01843e-06
1.42208e-08
1.01937e-06
1.65027e-08
1.02033e-06
1.89783e-08
1.02137e-06
2.21174e-08
1.02256e-06
2.52567e-08
1.02398e-06
2.9633e-08
1.02572e-06
3.35228e-08
1.02788e-06
3.95316e-08
1.03068e-06
4.42128e-08
1.03408e-06
5.24343e-08
1.03858e-06
5.74177e-08
1.0441e-06
6.87298e-08
1.05098e-06
7.38156e-08
1.05977e-06
8.70475e-08
1.07014e-06
9.42119e-08
1.0725e-07
1.08305e-06
1.00018e-06
-1.2142e-10
1.00074e-06
-3.80191e-10
1.00165e-06
-3.59134e-10
1.00278e-06
-2.33551e-10
1.0041e-06
-2.43629e-10
1.00562e-06
-2.65062e-10
1.00736e-06
6.97396e-11
1.00926e-06
9.83137e-10
1.01122e-06
2.34943e-09
1.01314e-06
3.94424e-09
1.01492e-06
5.6168e-09
1.01654e-06
7.32625e-09
1.018e-06
9.07695e-09
1.01936e-06
1.09409e-08
1.02065e-06
1.29284e-08
1.02195e-06
1.52056e-08
1.02331e-06
1.76194e-08
1.02481e-06
2.0611e-08
1.02651e-06
2.35603e-08
1.02853e-06
2.76103e-08
1.03089e-06
3.1164e-08
1.0338e-06
3.66197e-08
1.03727e-06
4.07464e-08
1.04156e-06
4.81423e-08
1.0467e-06
5.22781e-08
1.05312e-06
6.23083e-08
1.06051e-06
6.64284e-08
1.06991e-06
7.76444e-08
1.08053e-06
8.35949e-08
9.43258e-08
1.09345e-06
1.00021e-06
-3.32268e-10
1.00087e-06
-1.0358e-09
1.0019e-06
-1.39365e-09
1.00318e-06
-1.5081e-09
1.00462e-06
-1.68982e-09
1.00627e-06
-1.91657e-09
1.00815e-06
-1.80321e-09
1.0102e-06
-1.06783e-09
1.01231e-06
2.41451e-10
1.01438e-06
1.87332e-09
1.01632e-06
3.67364e-09
1.01811e-06
5.5364e-09
1.01976e-06
7.42513e-09
1.02132e-06
9.3768e-09
1.02286e-06
1.13905e-08
1.02445e-06
1.36182e-08
1.02614e-06
1.59266e-08
1.02804e-06
1.87126e-08
1.03017e-06
2.14322e-08
1.03269e-06
2.5086e-08
1.03557e-06
2.82859e-08
1.03909e-06
3.31027e-08
1.04311e-06
3.67208e-08
1.04809e-06
4.31689e-08
1.05373e-06
4.66315e-08
1.06077e-06
5.5274e-08
1.06857e-06
5.86282e-08
1.07826e-06
6.79525e-08
1.08903e-06
7.28268e-08
8.14765e-08
1.10188e-06
1.00025e-06
-5.79521e-10
1.00102e-06
-1.80632e-09
1.00222e-06
-2.5975e-09
1.00367e-06
-2.95899e-09
1.00529e-06
-3.31215e-09
1.00713e-06
-3.75582e-09
1.00921e-06
-3.88059e-09
1.01146e-06
-3.3205e-09
1.01377e-06
-2.06873e-09
1.01601e-06
-3.61584e-10
1.01806e-06
1.62301e-09
1.01993e-06
3.66212e-09
1.02168e-06
5.68118e-09
1.02336e-06
7.69129e-09
1.02506e-06
9.69207e-09
1.02686e-06
1.18224e-08
1.02881e-06
1.39773e-08
1.03102e-06
1.6504e-08
1.0335e-06
1.89519e-08
1.03642e-06
2.21589e-08
1.03973e-06
2.49799e-08
1.04372e-06
2.91122e-08
1.0482e-06
3.22388e-08
1.05368e-06
3.76904e-08
1.05972e-06
4.05928e-08
1.06717e-06
4.78189e-08
1.07525e-06
5.05527e-08
1.08507e-06
5.81296e-08
1.09585e-06
6.20512e-08
6.89353e-08
1.10839e-06
1.00036e-06
-9.37113e-10
1.0014e-06
-2.84731e-09
1.00289e-06
-4.08677e-09
1.00457e-06
-4.64274e-09
1.00641e-06
-5.15372e-09
1.00848e-06
-5.82179e-09
1.01077e-06
-6.16992e-09
1.01319e-06
-5.74248e-09
1.0156e-06
-4.47649e-09
1.01784e-06
-2.59996e-09
1.01987e-06
-4.07875e-10
1.02175e-06
1.77507e-09
1.02354e-06
3.89571e-09
1.0253e-06
5.92658e-09
1.02712e-06
7.8784e-09
1.02907e-06
9.87088e-09
1.03122e-06
1.18296e-08
1.03367e-06
1.40525e-08
1.03643e-06
1.61898e-08
1.03968e-06
1.89138e-08
1.04333e-06
2.13284e-08
1.04768e-06
2.47584e-08
1.05253e-06
2.73922e-08
1.05836e-06
3.18543e-08
1.06471e-06
3.42461e-08
1.07243e-06
4.01006e-08
1.08069e-06
4.22901e-08
1.09054e-06
4.82864e-08
1.10122e-06
5.13675e-08
5.66865e-08
1.11347e-06
1.00044e-06
-1.37484e-09
1.00187e-06
-4.28278e-09
1.00374e-06
-5.95226e-09
1.0057e-06
-6.60411e-09
1.00786e-06
-7.31058e-09
1.01029e-06
-8.25163e-09
1.01291e-06
-8.79224e-09
1.01559e-06
-8.41874e-09
1.01814e-06
-7.02911e-09
1.02042e-06
-4.8792e-09
1.02241e-06
-2.40252e-09
1.02418e-06
3.10364e-12
1.0258e-06
2.27751e-09
1.02743e-06
4.29443e-09
1.02919e-06
6.12679e-09
1.03116e-06
7.89994e-09
1.0334e-06
9.59081e-09
1.036e-06
1.14501e-08
1.03896e-06
1.32281e-08
1.04244e-06
1.54348e-08
1.04635e-06
1.74145e-08
1.05098e-06
2.01346e-08
1.0561e-06
2.22696e-08
1.06219e-06
2.5767e-08
1.06876e-06
2.76698e-08
1.07664e-06
3.22266e-08
1.08502e-06
3.39103e-08
1.09481e-06
3.84977e-08
1.10536e-06
4.08108e-08
4.47932e-08
1.11725e-06
1.00086e-06
-2.23887e-09
1.00295e-06
-6.37094e-09
1.00522e-06
-8.21606e-09
1.00745e-06
-8.83925e-09
1.00999e-06
-9.85203e-09
1.01285e-06
-1.11053e-08
1.0158e-06
-1.17447e-08
1.01864e-06
-1.12617e-08
1.02114e-06
-9.52469e-09
1.02314e-06
-6.8838e-09
1.02474e-06
-3.99788e-09
1.0261e-06
-1.35722e-09
1.02751e-06
8.67338e-10
1.02905e-06
2.75143e-09
1.0308e-06
4.38133e-09
1.03282e-06
5.87745e-09
1.03515e-06
7.25823e-09
1.03788e-06
8.71864e-09
1.041e-06
1.01081e-08
1.04466e-06
1.17736e-08
1.04877e-06
1.33036e-08
1.0536e-06
1.53068e-08
1.05892e-06
1.69526e-08
1.06519e-06
1.95011e-08
1.07192e-06
2.09376e-08
1.07988e-06
2.42643e-08
1.08832e-06
2.54693e-08
1.09804e-06
2.87809e-08
1.10844e-06
3.04099e-08
3.32137e-08
1.12002e-06
1.00185e-06
-4.08587e-09
1.00542e-06
-9.94676e-09
1.0083e-06
-1.10902e-08
1.01091e-06
-1.14475e-08
1.01406e-06
-1.30062e-08
1.0175e-06
-1.45459e-08
1.02082e-06
-1.50599e-08
1.02378e-06
-1.42243e-08
1.02605e-06
-1.17956e-08
1.02747e-06
-8.30654e-09
1.02833e-06
-4.85737e-09
1.02905e-06
-2.07731e-09
1.02991e-06
9.68193e-12
1.03096e-06
1.69683e-09
1.03237e-06
2.9753e-09
1.0342e-06
4.0479e-09
1.03646e-06
4.99238e-09
1.03922e-06
5.96646e-09
1.04242e-06
6.90567e-09
1.0462e-06
7.99624e-09
1.05045e-06
9.05084e-09
1.05543e-06
1.03266e-08
1.06089e-06
1.14966e-08
1.0673e-06
1.3087e-08
1.07412e-06
1.41216e-08
1.08216e-06
1.6216e-08
1.09061e-06
1.7028e-08
1.10029e-06
1.90948e-08
1.11056e-06
2.01412e-08
2.18815e-08
1.12189e-06
1.00308e-06
-7.16379e-09
1.00696e-06
-1.38314e-08
1.00943e-06
-1.35544e-08
1.0116e-06
-1.36203e-08
1.01402e-06
-1.54247e-08
1.01622e-06
-1.67473e-08
1.01801e-06
-1.68502e-08
1.0194e-06
-1.56118e-08
1.02024e-06
-1.26376e-08
1.02061e-06
-8.6789e-09
1.02088e-06
-5.13031e-09
1.02137e-06
-2.564e-09
1.02217e-06
-7.90456e-10
1.02342e-06
4.52982e-10
1.02507e-06
1.31745e-09
1.02717e-06
1.95517e-09
1.02969e-06
2.46934e-09
1.03268e-06
2.97271e-09
1.03614e-06
3.44495e-09
1.04016e-06
3.98174e-09
1.04471e-06
4.50303e-09
1.04992e-06
5.11308e-09
1.05571e-06
5.70505e-09
1.06236e-06
6.43421e-09
1.0695e-06
6.98655e-09
1.07779e-06
7.92342e-09
1.08645e-06
8.37113e-09
1.09628e-06
9.26136e-09
1.10666e-06
9.7661e-09
1.03306e-08
1.11821e-06
9.92836e-07
9.79005e-07
9.6545e-07
9.5183e-07
9.36405e-07
9.19658e-07
9.02808e-07
8.87196e-07
8.74559e-07
8.6588e-07
8.60749e-07
8.58185e-07
8.57395e-07
8.57848e-07
8.59165e-07
8.6112e-07
8.6359e-07
8.66563e-07
8.70007e-07
8.73989e-07
8.78492e-07
8.83605e-07
8.8931e-07
8.95745e-07
9.02731e-07
9.10655e-07
9.19026e-07
9.28287e-07
9.38053e-07
9.48384e-07
5.61893e-07
-1.01715e-07
5.95322e-07
-3.34288e-08
7.05486e-07
-1.10164e-07
6.98461e-07
7.02453e-09
7.04338e-07
-5.87724e-09
8.63887e-07
-1.59549e-07
7.87093e-07
7.6794e-08
7.66867e-07
2.02266e-08
1.06687e-06
-3.00004e-07
-7.88432e-08
1.14571e-06
7.90717e-07
-1.36951e-07
8.52537e-07
-9.52482e-08
8.34944e-07
-9.25712e-08
8.87988e-07
-4.60201e-08
9.46762e-07
-6.46504e-08
9.58207e-07
-1.70994e-07
9.50171e-07
8.48302e-08
1.01761e-06
-4.72135e-08
1.17674e-06
-4.59138e-07
-7.49984e-08
1.1729e-06
8.62256e-07
-1.5087e-07
8.70793e-07
-1.03785e-07
8.90089e-07
-1.11868e-07
9.37675e-07
-9.36056e-08
9.37417e-07
-6.43924e-08
9.30851e-07
-1.64428e-07
1.04956e-06
-3.3883e-08
1.10741e-06
-1.05059e-07
1.03218e-06
-3.83906e-07
-1.43603e-07
1.10078e-06
9.08626e-07
-1.51521e-07
9.34967e-07
-1.30126e-07
9.38201e-07
-1.15102e-07
9.59978e-07
-1.15383e-07
9.86279e-07
-9.06932e-08
9.7825e-07
-1.56399e-07
1.04001e-06
-9.5647e-08
1.09554e-06
-1.60579e-07
1.02562e-06
-3.13992e-07
-2.22587e-07
1.10461e-06
9.54058e-07
-1.60199e-07
9.57077e-07
-1.33145e-07
9.63922e-07
-1.21946e-07
9.83021e-07
-1.34482e-07
9.9812e-07
-1.05792e-07
1.00552e-06
-1.63798e-07
1.04131e-06
-1.31443e-07
1.06604e-06
-1.85306e-07
1.04822e-06
-2.96176e-07
-2.70926e-07
1.09656e-06
9.80957e-07
-1.54658e-07
9.88671e-07
-1.4086e-07
9.99324e-07
-1.32599e-07
1.00314e-06
-1.38301e-07
1.02122e-06
-1.2387e-07
1.02146e-06
-1.64042e-07
1.04816e-06
-1.58135e-07
1.06398e-06
-2.0113e-07
1.03272e-06
-2.64913e-07
-2.84976e-07
1.04677e-06
1.01e-06
-1.54793e-07
1.01211e-06
-1.42969e-07
1.01227e-06
-1.32762e-07
1.01858e-06
-1.44606e-07
1.02973e-06
-1.35025e-07
1.03034e-06
-1.64644e-07
1.04041e-06
-1.68213e-07
1.04847e-06
-2.09185e-07
1.03942e-06
-2.55863e-07
-2.85702e-07
1.04015e-06
1.03102e-06
-1.49609e-07
1.02907e-06
-1.41013e-07
1.03376e-06
-1.37455e-07
1.03177e-06
-1.42619e-07
1.03843e-06
-1.41684e-07
1.03765e-06
-1.63859e-07
1.04311e-06
-1.73673e-07
1.04007e-06
-2.06152e-07
1.0247e-06
-2.40486e-07
-2.77361e-07
1.01636e-06
1.04814e-06
-1.43905e-07
1.04605e-06
-1.38923e-07
1.04238e-06
-1.3378e-07
1.04092e-06
-1.41165e-07
1.0422e-06
-1.42964e-07
1.03826e-06
-1.59919e-07
1.03613e-06
-1.71539e-07
1.03143e-06
-2.01451e-07
1.01919e-06
-2.28251e-07
-2.6216e-07
1.00399e-06
1.06324e-06
-1.36912e-07
1.05666e-06
-1.32347e-07
1.0537e-06
-1.30814e-07
1.04821e-06
-1.35681e-07
1.04518e-06
-1.39932e-07
1.03933e-06
-1.5407e-07
1.03424e-06
-1.66447e-07
1.02343e-06
-1.90645e-07
1.00832e-06
-2.13133e-07
-2.44143e-07
9.903e-07
1.07393e-06
-1.27786e-07
1.06679e-06
-1.25215e-07
1.05968e-06
-1.23696e-07
1.05257e-06
-1.28575e-07
1.04628e-06
-1.3364e-07
1.03785e-06
-1.45645e-07
1.02843e-06
-1.5702e-07
1.0161e-06
-1.7832e-07
9.99949e-07
-1.96982e-07
-2.23599e-07
9.79405e-07
1.08338e-06
-1.17715e-07
1.07364e-06
-1.15469e-07
1.06524e-06
-1.15304e-07
1.05593e-06
-1.19258e-07
1.04679e-06
-1.24505e-07
1.03614e-06
-1.34995e-07
1.02475e-06
-1.45626e-07
1.00947e-06
-1.63041e-07
9.91591e-07
-1.79104e-07
-2.01698e-07
9.6969e-07
1.09015e-06
-1.05983e-07
1.07929e-06
-1.04615e-07
1.06875e-06
-1.04762e-07
1.05772e-06
-1.08226e-07
1.04649e-06
-1.13278e-07
1.03392e-06
-1.22422e-07
1.01998e-06
-1.31689e-07
1.00344e-06
-1.46497e-07
9.84311e-07
-1.59977e-07
-1.78885e-07
9.61498e-07
1.09564e-06
-9.3229e-08
1.08329e-06
-9.22699e-08
1.07133e-06
-9.28024e-08
1.05881e-06
-9.57065e-08
1.04585e-06
-1.00315e-07
1.03158e-06
-1.08156e-07
1.01623e-06
-1.16339e-07
9.98169e-07
-1.28433e-07
9.78004e-07
-1.39812e-07
-1.55356e-07
9.54475e-07
1.09962e-06
-7.93765e-08
1.0862e-06
-7.88524e-08
1.07291e-06
-7.95187e-08
1.05914e-06
-8.1937e-08
1.04483e-06
-8.59978e-08
1.02931e-06
-9.26413e-08
1.01253e-06
-9.95597e-08
9.93592e-07
-1.09492e-07
9.72608e-07
-1.18828e-07
-1.31462e-07
9.48713e-07
1.10257e-06
-6.46924e-08
1.08816e-06
-6.4439e-08
1.07385e-06
-6.52081e-08
1.05908e-06
-6.71708e-08
1.04374e-06
-7.06544e-08
1.02718e-06
-7.6085e-08
1.00949e-06
-8.18716e-08
9.89733e-07
-8.97322e-08
9.6818e-07
-9.72745e-08
-1.07235e-07
9.43953e-07
1.10465e-06
-4.93267e-08
1.08945e-06
-4.92353e-08
1.07431e-06
-5.00718e-08
1.05876e-06
-5.16146e-08
1.0426e-06
-5.44998e-08
1.02528e-06
-5.87652e-08
1.00682e-06
-6.34127e-08
9.8649e-07
-6.93993e-08
9.64458e-07
-7.52428e-08
-8.27638e-08
9.39987e-07
1.10589e-06
-3.33254e-08
1.08997e-06
-3.33115e-08
1.07407e-06
-3.41707e-08
1.05777e-06
-3.532e-08
1.04088e-06
-3.76074e-08
1.02272e-06
-4.06107e-08
1.00355e-06
-4.42358e-08
9.82464e-07
-4.83157e-08
9.59855e-07
-5.26338e-08
-5.76882e-08
9.3478e-07
1.10013e-06
-1.52437e-08
1.08241e-06
-1.55966e-08
1.06471e-06
-1.64663e-08
1.04677e-06
-1.73875e-08
1.02809e-06
-1.89217e-08
1.00815e-06
-2.06729e-08
9.87044e-07
-2.31296e-08
9.64056e-07
-2.53277e-08
9.39398e-07
-2.79753e-08
-3.05294e-08
9.12239e-07
9.3314e-07
9.17543e-07
9.01077e-07
8.8369e-07
8.64768e-07
8.44095e-07
8.20965e-07
7.95638e-07
7.67662e-07
7.37133e-07
-1.53527e-07
1.53527e-07
-3.10825e-07
1.57298e-07
-5.02333e-07
1.91509e-07
-6.10983e-07
1.0865e-07
-5.13544e-07
-9.74389e-08
-3.39848e-07
-1.73696e-07
-1.5921e-07
-1.80639e-07
-1.69193e-09
-1.57518e-07
1.2677e-07
-1.28462e-07
2.27673e-07
-1.00903e-07
3.04754e-07
-7.70803e-08
3.62115e-07
-5.73617e-08
4.0376e-07
-4.16447e-08
4.3343e-07
-2.96696e-08
4.54369e-07
-2.0939e-08
4.69158e-07
-1.4789e-08
4.79709e-07
-1.05513e-08
4.87367e-07
-7.65846e-09
4.93045e-07
-5.67772e-09
4.97348e-07
-4.30324e-09
5.00678e-07
-3.32985e-09
5.03302e-07
-2.62342e-09
5.05399e-07
-2.09738e-09
5.07096e-07
-1.69657e-09
5.08481e-07
-1.38523e-09
5.0962e-07
-1.13948e-09
5.10563e-07
-9.42868e-10
5.11347e-07
-7.83589e-10
5.12002e-07
-6.54906e-10
5.12549e-07
-5.4706e-10
5.13013e-07
-4.63842e-10
5.13398e-07
-3.85279e-10
5.13736e-07
-3.37698e-10
5.1401e-07
-2.74693e-10
5.14264e-07
-2.53535e-10
5.14469e-07
-2.04991e-10
5.14664e-07
-1.95416e-10
5.14829e-07
-1.65021e-10
5.14991e-07
-1.61898e-10
-1.50889e-10
-1.72077e-07
3.25604e-07
-3.65889e-07
3.5111e-07
-5.62759e-07
3.88379e-07
-6.58808e-07
2.04699e-07
-5.37079e-07
-2.19168e-07
-3.28058e-07
-3.82717e-07
-1.20422e-07
-3.88275e-07
5.15488e-08
-3.29488e-07
1.89366e-07
-2.66279e-07
3.0078e-07
-2.12317e-07
3.90631e-07
-1.66931e-07
4.6201e-07
-1.28741e-07
5.17658e-07
-9.72928e-08
5.60368e-07
-7.238e-08
5.92851e-07
-5.34218e-08
6.17509e-07
-3.94473e-08
6.3631e-07
-2.93516e-08
6.50769e-07
-2.21176e-08
6.62013e-07
-1.69218e-08
6.7086e-07
-1.31506e-08
6.77901e-07
-1.03709e-08
6.83563e-07
-8.28523e-09
6.88157e-07
-6.69147e-09
6.91914e-07
-5.45292e-09
6.95005e-07
-4.47634e-09
6.97562e-07
-3.69658e-09
6.99687e-07
-3.06792e-09
7.01459e-07
-2.55532e-09
7.02943e-07
-2.13892e-09
7.04185e-07
-1.78917e-09
7.05237e-07
-1.51566e-09
7.06113e-07
-1.26185e-09
7.06872e-07
-1.0965e-09
7.07495e-07
-8.97569e-10
7.0805e-07
-8.08669e-10
7.08503e-07
-6.58279e-10
7.08915e-07
-6.07384e-10
7.09254e-07
-5.041e-10
7.09575e-07
-4.82795e-10
-4.15307e-10
-1.27372e-07
4.52975e-07
-3.21534e-07
5.45272e-07
-5.51216e-07
6.18061e-07
-6.42719e-07
2.96201e-07
-5.362e-07
-3.25687e-07
-2.98197e-07
-6.20721e-07
-7.16327e-08
-6.14839e-07
1.07376e-07
-5.08497e-07
2.37375e-07
-3.96278e-07
3.34843e-07
-3.09786e-07
4.12801e-07
-2.44889e-07
4.76677e-07
-1.92617e-07
5.28462e-07
-1.49078e-07
5.69628e-07
-1.13547e-07
6.01895e-07
-8.56885e-08
6.27054e-07
-6.46059e-08
6.46706e-07
-4.9004e-08
6.6215e-07
-3.75621e-08
6.74385e-07
-2.91561e-08
6.84158e-07
-2.29243e-08
6.9203e-07
-1.82429e-08
6.98419e-07
-1.46734e-08
7.03638e-07
-1.19108e-08
7.07927e-07
-9.74247e-09
7.11471e-07
-8.01964e-09
7.1441e-07
-6.63594e-09
7.16858e-07
-5.51583e-09
7.18902e-07
-4.59943e-09
7.20616e-07
-3.85325e-09
7.22053e-07
-3.22528e-09
7.23269e-07
-2.73202e-09
7.24284e-07
-2.27689e-09
7.2516e-07
-1.97252e-09
7.25882e-07
-1.61979e-09
7.2652e-07
-1.44683e-09
7.27044e-07
-1.18177e-09
7.27516e-07
-1.07959e-09
7.27902e-07
-8.89654e-10
7.28266e-07
-8.4719e-10
-7.0682e-10
2.62074e-09
4.50355e-07
-1.93905e-07
7.41798e-07
-3.62601e-07
7.86757e-07
-4.56128e-07
3.89729e-07
-4.20856e-07
-3.60959e-07
-2.38094e-07
-8.03483e-07
-2.49866e-08
-8.27946e-07
1.63563e-07
-6.97046e-07
3.05178e-07
-5.37892e-07
3.99761e-07
-4.04369e-07
4.64601e-07
-3.09729e-07
5.1393e-07
-2.41946e-07
5.54136e-07
-1.89284e-07
5.87233e-07
-1.46643e-07
6.14111e-07
-1.12567e-07
6.35686e-07
-8.61809e-08
6.52942e-07
-6.62598e-08
6.66778e-07
-5.13977e-08
6.77932e-07
-4.03105e-08
6.86981e-07
-3.19736e-08
6.94367e-07
-2.56284e-08
7.00427e-07
-2.07335e-08
7.05423e-07
-1.69069e-08
7.09559e-07
-1.38785e-08
7.12996e-07
-1.14561e-08
7.1586e-07
-9.49978e-09
7.18253e-07
-7.90955e-09
7.20258e-07
-6.60417e-09
7.21943e-07
-5.53837e-09
7.23358e-07
-4.63974e-09
7.24557e-07
-3.93128e-09
7.25559e-07
-3.27955e-09
7.26424e-07
-2.83743e-09
7.27139e-07
-2.33454e-09
7.2777e-07
-2.0776e-09
7.28288e-07
-1.69947e-09
7.28755e-07
-1.54682e-09
7.29135e-07
-1.26961e-09
7.29494e-07
-1.20636e-09
-9.93243e-10
-1.62518e-07
6.12873e-07
-1.19993e-07
6.99273e-07
-7.0179e-08
7.36943e-07
-7.29916e-08
3.92541e-07
-8.18792e-08
-3.52071e-07
-1.49239e-08
-8.70438e-07
7.92803e-08
-9.2215e-07
1.93017e-07
-8.10783e-07
3.22036e-07
-6.66912e-07
4.31488e-07
-5.13821e-07
5.06344e-07
-3.84584e-07
5.53897e-07
-2.895e-07
5.86078e-07
-2.21465e-07
6.10538e-07
-1.71103e-07
6.30544e-07
-1.32573e-07
6.4726e-07
-1.02897e-07
6.61208e-07
-8.02082e-08
6.72794e-07
-6.29837e-08
6.82396e-07
-4.99128e-08
6.90355e-07
-3.99324e-08
6.96961e-07
-3.22339e-08
7.02453e-07
-2.62258e-08
7.07029e-07
-2.14826e-08
7.10848e-07
-1.7698e-08
7.14043e-07
-1.46504e-08
7.16719e-07
-1.21759e-08
7.18965e-07
-1.01557e-08
7.20852e-07
-8.49167e-09
7.22443e-07
-7.12911e-09
7.23781e-07
-5.97808e-09
7.24918e-07
-5.06767e-09
7.2587e-07
-4.23138e-09
7.26691e-07
-3.65897e-09
7.27371e-07
-3.01436e-09
7.27971e-07
-2.67787e-09
7.28464e-07
-2.19208e-09
7.28909e-07
-1.99178e-09
7.2927e-07
-1.63099e-09
7.29612e-07
-1.54804e-09
-1.26491e-09
1.07675e-07
5.05198e-07
4.31884e-07
3.75064e-07
5.04283e-07
6.64543e-07
4.27401e-07
4.69423e-07
3.51691e-07
-2.76362e-07
3.32875e-07
-8.51622e-07
3.38964e-07
-9.28239e-07
3.34417e-07
-8.06236e-07
3.65176e-07
-6.97671e-07
4.35137e-07
-5.83782e-07
5.11224e-07
-4.60671e-07
5.70352e-07
-3.48628e-07
6.08514e-07
-2.59627e-07
6.32026e-07
-1.94615e-07
6.4798e-07
-1.48526e-07
6.6042e-07
-1.15338e-07
6.70928e-07
-9.07156e-08
6.79996e-07
-7.20515e-08
6.87802e-07
-5.77196e-08
6.94477e-07
-4.66072e-08
7.00152e-07
-3.79085e-08
7.04958e-07
-3.10317e-08
7.09019e-07
-2.55434e-08
7.12445e-07
-2.11249e-08
7.15336e-07
-1.75408e-08
7.17773e-07
-1.46135e-08
7.1983e-07
-1.22125e-08
7.21566e-07
-1.02273e-08
7.23033e-07
-8.59676e-09
7.24272e-07
-7.21629e-09
7.25325e-07
-6.12124e-09
7.26209e-07
-5.11556e-09
7.26973e-07
-4.42305e-09
7.27606e-07
-3.64744e-09
7.28166e-07
-3.23741e-09
7.28625e-07
-2.65137e-09
7.2904e-07
-2.40695e-09
7.29378e-07
-1.96812e-09
7.29696e-07
-1.86663e-09
-1.51794e-09
1.97683e-07
3.07515e-07
6.01182e-07
-2.84345e-08
8.03509e-07
4.62216e-07
8.21384e-07
4.51548e-07
7.59582e-07
-2.14559e-07
6.39128e-07
-7.31168e-07
5.8139e-07
-8.70501e-07
5.7758e-07
-8.02426e-07
5.60305e-07
-6.80397e-07
5.41724e-07
-5.65201e-07
5.5106e-07
-4.70007e-07
5.83711e-07
-3.81279e-07
6.18617e-07
-2.94533e-07
6.44266e-07
-2.20264e-07
6.60757e-07
-1.65017e-07
6.71815e-07
-1.26396e-07
6.80245e-07
-9.91458e-08
6.87346e-07
-7.91527e-08
6.93555e-07
-6.39285e-08
6.98998e-07
-5.20497e-08
7.03732e-07
-4.2643e-08
7.07818e-07
-3.51175e-08
7.11322e-07
-2.90471e-08
7.14313e-07
-2.41162e-08
7.16859e-07
-2.00872e-08
7.19023e-07
-1.67772e-08
7.2086e-07
-1.40492e-08
7.22417e-07
-1.17848e-08
7.2374e-07
-9.91905e-09
7.24859e-07
-8.33554e-09
7.25814e-07
-7.07615e-09
7.26617e-07
-5.91871e-09
7.27312e-07
-5.11835e-09
7.27889e-07
-4.22437e-09
7.284e-07
-3.74796e-09
7.28819e-07
-3.07075e-09
7.29198e-07
-2.78628e-09
7.29506e-07
-2.27622e-09
7.29797e-07
-2.15772e-09
-1.74896e-09
9.84031e-07
4.69198e-07
1.01909e-06
-6.3495e-08
1.13693e-06
3.44373e-07
1.21905e-06
3.69434e-07
1.25803e-06
-2.53544e-07
1.1179e-06
-5.9103e-07
9.02161e-07
-6.54766e-07
8.25904e-07
-7.26169e-07
8.4297e-07
-6.97463e-07
8.23062e-07
-5.45293e-07
7.60776e-07
-4.07721e-07
7.12899e-07
-3.33402e-07
6.97787e-07
-2.79421e-07
7.01427e-07
-2.23903e-07
7.10306e-07
-1.73897e-07
7.18542e-07
-1.34632e-07
7.25098e-07
-1.05702e-07
7.30477e-07
-8.45313e-08
7.35179e-07
-6.86308e-08
7.39422e-07
-5.62932e-08
7.43254e-07
-4.64745e-08
7.46671e-07
-3.85352e-08
7.49679e-07
-3.20551e-08
7.52298e-07
-2.6735e-08
7.5456e-07
-2.23492e-08
7.56503e-07
-1.87203e-08
7.58167e-07
-1.57125e-08
7.59586e-07
-1.32046e-08
7.60798e-07
-1.11307e-08
7.61828e-07
-9.36545e-09
7.6271e-07
-7.9579e-09
7.63453e-07
-6.66239e-09
7.64099e-07
-5.76369e-09
7.64635e-07
-4.76082e-09
7.65111e-07
-4.22343e-09
7.65502e-07
-3.46179e-09
7.65856e-07
-3.14024e-09
7.66143e-07
-2.56388e-09
7.66415e-07
-2.42951e-09
-1.96457e-09
1.15386e-06
4.88241e-07
1.16193e-06
-7.15717e-08
1.27186e-06
2.34444e-07
1.39424e-06
2.47059e-07
1.38436e-06
-2.43663e-07
1.29358e-06
-5.00252e-07
1.15622e-06
-5.17409e-07
9.93153e-07
-5.63101e-07
9.16951e-07
-6.21261e-07
9.21976e-07
-5.50318e-07
9.15321e-07
-4.01065e-07
8.65577e-07
-2.83658e-07
8.0447e-07
-2.18314e-07
7.61306e-07
-1.80739e-07
7.40685e-07
-1.53275e-07
7.34325e-07
-1.28272e-07
7.3468e-07
-1.06057e-07
7.37554e-07
-8.74053e-08
7.41045e-07
-7.2122e-08
7.44438e-07
-5.96861e-08
7.47522e-07
-4.95584e-08
7.50263e-07
-4.12764e-08
7.52678e-07
-3.44692e-08
7.5479e-07
-2.88479e-08
7.5663e-07
-2.41883e-08
7.58223e-07
-2.03132e-08
7.59597e-07
-1.70868e-08
7.60778e-07
-1.43858e-08
7.61792e-07
-1.21449e-08
7.62659e-07
-1.02319e-08
7.63404e-07
-8.70289e-09
7.64034e-07
-7.29288e-09
7.64583e-07
-6.31252e-09
7.6504e-07
-5.21811e-09
7.65447e-07
-4.6296e-09
7.65781e-07
-3.79636e-09
7.66084e-07
-3.44342e-09
7.66331e-07
-2.81048e-09
7.66564e-07
-2.6626e-09
-2.14946e-09
1.2236e-06
3.65424e-07
1.19721e-06
-4.5184e-08
1.29522e-06
1.36432e-07
1.40294e-06
1.39342e-07
1.29234e-06
-1.33067e-07
1.19005e-06
-3.97962e-07
1.16967e-06
-4.97029e-07
1.03912e-06
-4.32544e-07
8.26516e-07
-4.0866e-07
7.13545e-07
-4.37346e-07
7.25905e-07
-4.13425e-07
7.7346e-07
-3.31214e-07
7.9788e-07
-2.42734e-07
7.94683e-07
-1.77542e-07
7.79492e-07
-1.38085e-07
7.65489e-07
-1.1427e-07
7.56628e-07
-9.71951e-08
7.52352e-07
-8.31292e-08
7.51105e-07
-7.08755e-08
7.51557e-07
-6.01382e-08
7.52822e-07
-5.08232e-08
7.54386e-07
-4.28403e-08
7.55983e-07
-3.60663e-08
7.5749e-07
-3.03547e-08
7.58857e-07
-2.55558e-08
7.60072e-07
-2.15281e-08
7.61138e-07
-1.81527e-08
7.62066e-07
-1.53132e-08
7.62869e-07
-1.29485e-08
7.63561e-07
-1.09233e-08
7.64159e-07
-9.30098e-09
7.64667e-07
-7.8014e-09
7.65112e-07
-6.75703e-09
7.65483e-07
-5.58965e-09
7.65814e-07
-4.96052e-09
7.66087e-07
-4.06954e-09
7.66335e-07
-3.69139e-09
7.66537e-07
-3.01243e-09
7.66728e-07
-2.85363e-09
-2.30101e-09
1.20425e-06
2.65778e-07
1.13378e-06
2.52917e-08
1.21028e-06
5.99289e-08
1.28698e-06
6.26403e-08
1.22551e-06
-7.15997e-08
1.11527e-06
-2.87721e-07
1.01632e-06
-3.98079e-07
9.14466e-07
-3.30688e-07
7.82624e-07
-2.76818e-07
6.59568e-07
-3.1429e-07
6.04078e-07
-3.57935e-07
6.15764e-07
-3.429e-07
6.54334e-07
-2.81304e-07
6.91371e-07
-2.1458e-07
7.17585e-07
-1.64299e-07
7.33755e-07
-1.3044e-07
7.43334e-07
-1.06773e-07
7.49035e-07
-8.88304e-08
7.5255e-07
-7.43909e-08