/*--------------------------------*- C++ -*----------------------------------*\
| =========                 |                                                 |
| \\      /  F ield         | OpenFOAM: The Open Source CFD Toolbox           |
|  \\    /   O peration     | Version:  2112                                  |
|   \\  /    A nd           | Website:  www.openfoam.com                      |
|    \\/     M anipulation  |                                                 |
\*---------------------------------------------------------------------------*/
FoamFile
{
    version     2.0;
    format      ascii;
    arch        "LSB;label=32;scalar=64";
    class       volVectorField;
    location    "0.1";
    object      U;
}
// * * * * * * * * * * * * * * * * * * * * * * * * * * * * * * * * * * * * * //

dimensions      [0 1 -1 0 0 0 0];

internalField   nonuniform List<vector> 
1880
(
(0.0991814 0.000607685 0)
(0.0983279 0.00120909 0)
(0.0972375 0.00118774 0)
(0.0962078 0.00120278 0)
(0.0943122 0.00137831 0)
(0.0922611 0.00150649 0)
(0.0907281 0.00151132 0)
(0.0891034 0.001386 0)
(0.0872967 0.00111731 0)
(0.0858773 0.000788114 0)
(0.0849955 0.00051878 0)
(0.0843834 0.000346629 0)
(0.0838727 0.000246881 0)
(0.0834481 0.000191705 0)
(0.0830874 0.000174887 0)
(0.0827372 0.000172375 0)
(0.0823605 0.00020425 0)
(0.0819252 0.0002077 0)
(0.0814426 0.000298125 0)
(0.0808234 0.000263719 0)
(0.0801782 0.000476039 0)
(0.079231 0.000346367 0)
(0.078319 0.000771073 0)
(0.0768724 0.00051963 0)
(0.075367 0.00126062 0)
(0.0731738 0.000880997 0)
(0.0703784 0.00230016 0)
(0.0665529 0.00185498 0)
(0.0611292 0.00462509 0)
(0.0531666 0.0073136 0)
(0.100143 0.00069122 0)
(0.100255 0.0014744 0)
(0.100582 0.00154365 0)
(0.10132 0.00158373 0)
(0.101219 0.00179989 0)
(0.10096 0.00199022 0)
(0.101338 0.00207076 0)
(0.101632 0.00202342 0)
(0.101408 0.00178842 0)
(0.101082 0.00141879 0)
(0.100895 0.00106311 0)
(0.100699 0.000804584 0)
(0.100404 0.00064368 0)
(0.100085 0.00055285 0)
(0.0997594 0.000530919 0)
(0.0994522 0.000535369 0)
(0.0990381 0.000621365 0)
(0.0987077 0.000642889 0)
(0.0980548 0.000886302 0)
(0.0977874 0.000803716 0)
(0.0966118 0.00141105 0)
(0.0965968 0.00100262 0)
(0.0944684 0.00231346 0)
(0.0948444 0.00143597 0)
(0.0914118 0.00360223 0)
(0.0919045 0.00271792 0)
(0.0869358 0.00560351 0)
(0.0871961 0.00577351 0)
(0.0801499 0.0102621 0)
(0.079775 0.0128898 0)
(0.100151 0.000239183 0)
(0.100144 0.000697704 0)
(0.10041 0.000919907 0)
(0.101211 0.00102614 0)
(0.101198 0.00117278 0)
(0.101042 0.00134404 0)
(0.101575 0.00147472 0)
(0.102058 0.00151616 0)
(0.102011 0.0014389 0)
(0.10183 0.0012728 0)
(0.101752 0.00109106 0)
(0.101623 0.000945803 0)
(0.101362 0.000854534 0)
(0.101059 0.00081274 0)
(0.100754 0.000824046 0)
(0.100463 0.000870544 0)
(0.100099 0.000979716 0)
(0.0997788 0.00109075 0)
(0.0992445 0.00132793 0)
(0.0989419 0.00146303 0)
(0.0980351 0.00196503 0)
(0.0978873 0.00199459 0)
(0.0962781 0.0031195 0)
(0.0964089 0.00278215 0)
(0.0939619 0.00504507 0)
(0.0938782 0.00449439 0)
(0.0914901 0.00774181 0)
(0.0894927 0.00887673 0)
(0.089135 0.0117721 0)
(0.0836996 0.0173479 0)
(0.100163 0.000216861 0)
(0.100026 0.000649739 0)
(0.100121 0.000924187 0)
(0.10087 0.00106181 0)
(0.100841 0.00119015 0)
(0.100629 0.00134844 0)
(0.101107 0.00149484 0)
(0.101572 0.00158178 0)
(0.101543 0.0015762 0)
(0.10142 0.00148188 0)
(0.101434 0.00134444 0)
(0.101413 0.00121514 0)
(0.10125 0.00112703 0)
(0.101036 0.00108711 0)
(0.100797 0.0011086 0)
(0.10058 0.00117056 0)
(0.100252 0.00131432 0)
(0.100021 0.00145597 0)
(0.0994981 0.00176282 0)
(0.0993366 0.00194325 0)
(0.0984401 0.00254923 0)
(0.0984823 0.00267404 0)
(0.0969653 0.00388058 0)
(0.0973599 0.0037919 0)
(0.0950205 0.00605678 0)
(0.0958404 0.0057647 0)
(0.0926498 0.00942913 0)
(0.0939446 0.00942942 0)
(0.0903233 0.0148844 0)
(0.0918549 0.0157117 0)
(0.100168 0.000133907 0)
(0.0999756 0.000410295 0)
(0.0999958 0.000634158 0)
(0.100709 0.000769251 0)
(0.100661 0.000869679 0)
(0.100419 0.000994741 0)
(0.100866 0.00114031 0)
(0.101316 0.00126452 0)
(0.101296 0.00133175 0)
(0.101208 0.00133493 0)
(0.101277 0.00129674 0)
(0.101317 0.00125163 0)
(0.101214 0.00122814 0)
(0.101055 0.00123993 0)
(0.100867 0.00130002 0)
(0.100705 0.00140403 0)
(0.100424 0.00157432 0)
(0.100264 0.00177787 0)
(0.0997904 0.00209534 0)
(0.099734 0.00239458 0)
(0.0989108 0.00296332 0)
(0.0990815 0.00331813 0)
(0.0977917 0.00437345 0)
(0.0981515 0.00472123 0)
(0.0966416 0.00652333 0)
(0.0967082 0.00717413 0)
(0.0957441 0.00936415 0)
(0.0949443 0.0117557 0)
(0.0953401 0.0131153 0)
(0.0939303 0.0187132 0)
(0.10017 0.000111227 0)
(0.099959 0.000341415 0)
(0.0999398 0.000553653 0)
(0.10062 0.000697931 0)
(0.100549 0.000799854 0)
(0.100283 0.00091699 0)
(0.1007 0.00105947 0)
(0.101129 0.00119498 0)
(0.101106 0.00128968 0)
(0.101037 0.00133163 0)
(0.101143 0.00133404 0)
(0.101234 0.0013249 0)
(0.101186 0.00133196 0)
(0.101086 0.0013722 0)
(0.100953 0.00145804 0)
(0.100853 0.00159112 0)
(0.100626 0.00178607 0)
(0.100541 0.00202995 0)
(0.100127 0.00236722 0)
(0.100175 0.00273576 0)
(0.0994384 0.00329449 0)
(0.0997497 0.00378363 0)
(0.0986115 0.00474169 0)
(0.0991746 0.00531546 0)
(0.0978451 0.0069268 0)
(0.0984028 0.00765347 0)
(0.0973177 0.0100402 0)
(0.0977976 0.0112613 0)
(0.0974039 0.0144612 0)
(0.0977492 0.0163149 0)
(0.10017 8.42075e-05 0)
(0.0999453 0.000256834 0)
(0.0999002 0.000426807 0)
(0.100556 0.000549237 0)
(0.10047 0.000632635 0)
(0.100193 0.000728582 0)
(0.100601 0.000859457 0)
(0.101024 0.00100345 0)
(0.101005 0.00112755 0)
(0.100952 0.00121387 0)
(0.101087 0.00126708 0)
(0.101216 0.00130747 0)
(0.101213 0.00135767 0)
(0.10116 0.00143549 0)
(0.101077 0.00155176 0)
(0.101031 0.00171606 0)
(0.100862 0.00193236 0)
(0.100843 0.00221228 0)
(0.100505 0.00255725 0)
(0.100636 0.00298218 0)
(0.100017 0.00351278 0)
(0.100414 0.00410601 0)
(0.0995097 0.0049373 0)
(0.100081 0.00573293 0)
(0.0992593 0.00694881 0)
(0.0995872 0.00820195 0)
(0.0994708 0.00956795 0)
(0.099408 0.0119076 0)
(0.100156 0.0130558 0)
(0.10043 0.0165651 0)
(0.100171 6.47129e-05 0)
(0.0999391 0.000197558 0)
(0.0998823 0.000339005 0)
(0.100526 0.000447987 0)
(0.100431 0.000521872 0)
(0.100146 0.00060415 0)
(0.100547 0.000723029 0)
(0.100966 0.00086575 0)
(0.100951 0.00100281 0)
(0.100914 0.00111401 0)
(0.101073 0.00119891 0)
(0.101234 0.00127281 0)
(0.10127 0.00135415 0)
(0.10126 0.00146039 0)
(0.101225 0.00160048 0)
(0.10123 0.00178856 0)
(0.101121 0.0020205 0)
(0.101162 0.00232453 0)
(0.100906 0.00267147 0)
(0.101106 0.00312943 0)
(0.100613 0.00363086 0)
(0.101084 0.00427766 0)
(0.10037 0.00501546 0)
(0.101032 0.00588519 0)
(0.100447 0.00693138 0)
(0.100953 0.00816112 0)
(0.101027 0.0094744 0)
(0.101291 0.0112319 0)
(0.102167 0.0128679 0)
(0.102573 0.0150188 0)
(0.100171 4.73495e-05 0)
(0.0999362 0.000144519 0)
(0.0998736 0.000256495 0)
(0.10051 0.00034596 0)
(0.10041 0.000403937 0)
(0.100124 0.000468071 0)
(0.100524 0.000571083 0)
(0.100945 0.00070829 0)
(0.100939 0.000853356 0)
(0.100917 0.000983996 0)
(0.101098 0.00109534 0)
(0.101288 0.00119849 0)
(0.101359 0.00130786 0)
(0.101387 0.00143948 0)
(0.101397 0.00160019 0)
(0.101448 0.00180717 0)
(0.101398 0.00204984 0)
(0.10149 0.00236837 0)
(0.10132 0.00271125 0)
(0.101571 0.00318373 0)
(0.101213 0.00365214 0)
(0.101722 0.00432214 0)
(0.101218 0.00496164 0)
(0.101896 0.00588765 0)
(0.101601 0.00669848 0)
(0.102117 0.00804693 0)
(0.102519 0.00893057 0)
(0.102843 0.0108109 0)
(0.103856 0.0118663 0)
(0.10471 0.0139689 0)
(0.100171 3.08783e-05 0)
(0.0999354 9.41281e-05 0)
(0.0998713 0.000176752 0)
(0.100508 0.000246099 0)
(0.100408 0.000288361 0)
(0.100124 0.000334983 0)
(0.100527 0.000420975 0)
(0.100954 0.000548732 0)
(0.100959 0.000695825 0)
(0.100952 0.000839217 0)
(0.101155 0.000970595 0)
(0.101371 0.00109705 0)
(0.101472 0.00122916 0)
(0.101535 0.00138099 0)
(0.101586 0.0015576 0)
(0.101677 0.00177721 0)
(0.101683 0.00202541 0)
(0.101819 0.00234833 0)
(0.101732 0.00268305 0)
(0.102023 0.00315159 0)
(0.101795 0.00358922 0)
(0.102328 0.0042468 0)
(0.10201 0.00481306 0)
(0.102711 0.00571797 0)
(0.102622 0.00639382 0)
(0.103206 0.00766727 0)
(0.103774 0.00841047 0)
(0.104209 0.0100187 0)
(0.105365 0.010985 0)
(0.106179 0.0127185 0)
(0.100171 1.45116e-05 0)
(0.0999366 4.40366e-05 0)
(0.099875 9.64434e-05 0)
(0.100515 0.000144258 0)
(0.100421 0.000169466 0)
(0.100143 0.000196899 0)
(0.100552 0.000263047 0)
(0.100988 0.000377606 0)
(0.101007 0.000522417 0)
(0.101016 0.000674119 0)
(0.101239 0.000821428 0)
(0.101479 0.000967507 0)
(0.101607 0.00111903 0)
(0.1017 0.00128742 0)
(0.101786 0.00147584 0)
(0.101913 0.00170258 0)
(0.101969 0.00195151 0)
(0.102143 0.00227061 0)
(0.102135 0.00259251 0)
(0.102453 0.00304392 0)
(0.102349 0.0034489 0)
(0.10289 0.00407458 0)
(0.102744 0.00457182 0)
(0.103447 0.00543292 0)
(0.10354 0.00597982 0)
(0.104168 0.00717962 0)
(0.104852 0.00774988 0)
(0.105411 0.00918142 0)
(0.106541 0.00997666 0)
(0.107582 0.0113809 0)
(0.100171 -2.74909e-06 0)
(0.0999393 -8.75326e-06 0)
(0.0998833 1.20475e-05 0)
(0.100533 3.8205e-05 0)
(0.100448 4.72525e-05 0)
(0.100178 5.64101e-05 0)
(0.100598 0.000102873 0)
(0.101048 0.000202132 0)
(0.101081 0.000341409 0)
(0.101107 0.000497401 0)
(0.101349 0.000656667 0)
(0.10161 0.000818323 0)
(0.101761 0.000985127 0)
(0.101878 0.00116564 0)
(0.101995 0.00136144 0)
(0.10215 0.00158984 0)
(0.102252 0.00183486 0)
(0.102455 0.00214242 0)
(0.102518 0.0024474 0)
(0.102856 0.00287027 0)
(0.102863 0.00324264 0)
(0.103404 0.00381862 0)
(0.103409 0.00425825 0)
(0.104106 0.00504466 0)
(0.104345 0.00549936 0)
(0.10501 0.00657661 0)
(0.105771 0.00703671 0)
(0.106412 0.00826165 0)
(0.107568 0.00891154 0)
(0.108619 0.0101145 0)
(0.100171 -2.24442e-05 0)
(0.099945 -6.90453e-05 0)
(0.0999002 -8.58286e-05 0)
(0.100564 -8.68374e-05 0)
(0.100494 -9.83363e-05 0)
(0.100237 -0.000112027 0)
(0.10067 -9.02901e-05 0)
(0.101134 -1.01807e-05 0)
(0.101183 0.0001217 0)
(0.101224 0.000284008 0)
(0.101482 0.000459424 0)
(0.101759 0.00064007 0)
(0.101929 0.000823525 0)
(0.102064 0.00101562 0)
(0.102205 0.00121698 0)
(0.102383 0.00144343 0)
(0.102523 0.00168058 0)
(0.102749 0.00197063 0)
(0.102874 0.00225489 0)
(0.103226 0.00264137 0)
(0.103331 0.00297969 0)
(0.103866 0.00349524 0)
(0.104 0.00388268 0)
(0.104686 0.00457902 0)
(0.105042 0.00495972 0)
(0.105737 0.0059001 0)
(0.106538 0.00627304 0)
(0.107262 0.00729903 0)
(0.108386 0.00784351 0)
(0.109501 0.00879799 0)
(0.100171 -4.42546e-05 0)
(0.0999516 -0.00013532 0)
(0.0999204 -0.000187581 0)
(0.100604 -0.000207835 0)
(0.100553 -0.000231432 0)
(0.100313 -0.000262206 0)
(0.100765 -0.000261521 0)
(0.10125 -0.000196932 0)
(0.101321 -6.98757e-05 0)
(0.101381 9.85473e-05 0)
(0.101652 0.000284105 0)
(0.101939 0.000473825 0)
(0.102117 0.000663985 0)
(0.102261 0.000858572 0)
(0.102418 0.00105765 0)
(0.102611 0.00127509 0)
(0.102781 0.0014984 0)
(0.103023 0.0017646 0)
(0.1032 0.00202366 0)
(0.103559 0.00236757 0)
(0.103748 0.0026695 0)
(0.104272 0.00311813 0)
(0.104515 0.00345653 0)
(0.105187 0.00405431 0)
(0.105636 0.00437479 0)
(0.10635 0.00517093 0)
(0.107177 0.00547544 0)
(0.107956 0.00631974 0)
(0.109061 0.00675675 0)
(0.110182 0.00753457 0)
(0.10017 -7.64865e-05 0)
(0.0999686 -0.000235712 0)
(0.0999684 -0.00034429 0)
(0.100683 -0.000397641 0)
(0.100656 -0.000445953 0)
(0.100436 -0.000505012 0)
(0.10091 -0.000530686 0)
(0.101417 -0.000481727 0)
(0.101503 -0.00035518 0)
(0.101567 -0.00017473 0)
(0.101835 3.1816e-05 0)
(0.10212 0.000248095 0)
(0.102302 0.000462604 0)
(0.102451 0.0006711 0)
(0.102619 0.000873045 0)
(0.102822 0.00108215 0)
(0.103015 0.00129007 0)
(0.103269 0.00152922 0)
(0.103488 0.00175983 0)
(0.103852 0.00205744 0)
(0.104109 0.00232036 0)
(0.104623 0.00269938 0)
(0.104954 0.00298912 0)
(0.105611 0.00348683 0)
(0.106131 0.00375385 0)
(0.106859 0.00440823 0)
(0.107696 0.0046554 0)
(0.108519 0.00533167 0)
(0.109594 0.00568215 0)
(0.110719 0.00628676 0)
(0.100169 -0.000103018 0)
(0.0999857 -0.000316653 0)
(0.100028 -0.00045063 0)
(0.100783 -0.000507104 0)
(0.100786 -0.000560566 0)
(0.100598 -0.000634244 0)
(0.101108 -0.000678222 0)
(0.101648 -0.000643184 0)
(0.101754 -0.000519506 0)
(0.101825 -0.000330364 0)
(0.102094 -0.00010857 0)
(0.102372 0.000117929 0)
(0.102538 0.000327265 0)
(0.10267 0.000522013 0)
(0.102828 0.000705968 0)
(0.103026 0.000891495 0)
(0.103229 0.00107311 0)
(0.103488 0.00127725 0)
(0.103738 0.00147352 0)
(0.104103 0.00172061 0)
(0.104413 0.00194123 0)
(0.104916 0.00224948 0)
(0.105317 0.00248957 0)
(0.105959 0.00288909 0)
(0.106533 0.00310529 0)
(0.107269 0.0036255 0)
(0.10811 0.00382005 0)
(0.108961 0.00434686 0)
(0.11001 0.0046164 0)
(0.111125 0.00507887 0)
(0.100164 -0.000191951 0)
(0.100038 -0.000574158 0)
(0.100158 -0.000775604 0)
(0.100952 -0.000848227 0)
(0.100981 -0.000936272 0)
(0.100832 -0.00105077 0)
(0.101383 -0.00111397 0)
(0.101951 -0.0010729 0)
(0.102064 -0.000915677 0)
(0.102118 -0.000669258 0)
(0.102351 -0.000387328 0)
(0.102584 -0.000118963 0)
(0.102716 0.000116423 0)
(0.102832 0.00032597 0)
(0.102989 0.000509904 0)
(0.103188 0.00068044 0)
(0.103402 0.000838259 0)
(0.103665 0.00100697 0)
(0.10394 0.00116708 0)
(0.104305 0.00136208 0)
(0.104657 0.00153832 0)
(0.105151 0.00177578 0)
(0.105605 0.00196587 0)
(0.106233 0.00226981 0)
(0.106848 0.00243773 0)
(0.107587 0.00283121 0)
(0.108427 0.00297628 0)
(0.109297 0.00336919 0)
(0.110322 0.00356486 0)
(0.111422 0.00390262 0)
(0.100152 -0.000220975 0)
(0.100157 -0.000642318 0)
(0.100451 -0.000811611 0)
(0.101303 -0.000870391 0)
(0.101354 -0.000986412 0)
(0.101266 -0.00112337 0)
(0.101878 -0.00119023 0)
(0.10247 -0.0011361 0)
(0.102575 -0.000948659 0)
(0.102589 -0.000673804 0)
(0.102751 -0.000388598 0)
(0.102909 -0.000139817 0)
(0.102981 6.68756e-05 0)
(0.103046 0.000235152 0)
(0.103161 0.000375214 0)
(0.103331 0.000500708 0)
(0.103535 0.000615542 0)
(0.103793 0.000736505 0)
(0.10408 0.000853224 0)
(0.104445 0.000990768 0)
(0.104825 0.00112095 0)
(0.105314 0.00128461 0)
(0.105804 0.00142651 0)
(0.106425 0.00163447 0)
(0.107067 0.00175701 0)
(0.10781 0.00203136 0)
(0.108646 0.00212904 0)
(0.109532 0.00240044 0)
(0.110533 0.00252995 0)
(0.111625 0.00275427 0)
(0.100144 -0.000678763 0)
(0.100269 -0.00143662 0)
(0.100626 -0.00147111 0)
(0.10142 -0.00147962 0)
(0.10139 -0.00167367 0)
(0.101208 -0.00183814 0)
(0.101679 -0.00187358 0)
(0.102104 -0.00176384 0)
(0.102058 -0.00146173 0)
(0.101951 -0.00102829 0)
(0.102032 -0.000611785 0)
(0.102147 -0.000293069 0)
(0.102205 -6.69575e-05 0)
(0.102278 9.31204e-05 0)
(0.102418 0.000209355 0)
(0.102614 0.000299357 0)
(0.102845 0.000374427 0)
(0.103126 0.000449178 0)
(0.10344 0.000520688 0)
(0.103828 0.000601805 0)
(0.104233 0.000682242 0)
(0.104756 0.000774847 0)
(0.105254 0.000866077 0)
(0.105944 0.000979255 0)
(0.106547 0.00106178 0)
(0.107414 0.00121182 0)
(0.10815 0.00127732 0)
(0.109199 0.00142282 0)
(0.110062 0.00150331 0)
(0.111323 0.00160972 0)
(0.099182 -0.000604307 0)
(0.0983438 -0.00119874 0)
(0.097287 -0.00116786 0)
(0.0963168 -0.00117385 0)
(0.0944982 -0.00134207 0)
(0.0925345 -0.00146025 0)
(0.0911123 -0.00144951 0)
(0.089641 -0.00130745 0)
(0.0880314 -0.00102428 0)
(0.0868429 -0.000681041 0)
(0.086231 -0.000396073 0)
(0.0859308 -0.000206824 0)
(0.0857726 -8.41962e-05 0)
(0.0857466 1.29305e-06 0)
(0.0858394 5.76053e-05 0)
(0.0860125 9.48029e-05 0)
(0.0862365 0.000122196 0)
(0.0865115 0.000147545 0)
(0.0868289 0.00017061 0)
(0.0872074 0.000196769 0)
(0.0876194 0.00022159 0)
(0.0881206 0.00025083 0)
(0.0886268 0.000279685 0)
(0.0892836 0.000312017 0)
(0.0898819 0.000341991 0)
(0.0907158 0.000379791 0)
(0.0914172 0.000405531 0)
(0.0924291 0.000441164 0)
(0.093222 0.000465771 0)
(0.0944274 0.000480845 0)
(0.0408802 0.00923944 0)
(0.0707681 0.0366782 0)
(0.0544776 0.0102774 0)
(0.0993784 0.0471453 1.15302e-21)
(0.0529525 0.0310081 8.83692e-22)
(0.108804 0.0336765 0)
(0.096383 0.0435276 5.86388e-22)
(0.0886696 0.0479347 -1.15972e-22)
(0.109143 0.0316965 3.3302e-22)
(0.160169 0.0630659 0)
(0.0732691 0.0233753 0)
(0.0845142 0.0294118 0)
(0.0949839 0.0371803 0)
(0.0861765 0.0419756 0)
(0.106613 0.0431156 0)
(0.113243 0.0379831 2.67183e-22)
(0.109068 0.0674094 1.30843e-22)
(0.119038 0.0540768 -9.6176e-23)
(0.138239 0.0214507 -4.90309e-22)
(0.161863 0.0717954 -5.61595e-22)
(0.0868904 0.0208437 0)
(0.0866947 0.0288413 0)
(0.0950868 0.0304214 0)
(0.096529 0.0305592 0)
(0.108942 0.0415549 0)
(0.107458 0.0265583 -2.67181e-22)
(0.110819 0.0483187 -1.30852e-22)
(0.14397 0.0538651 9.62048e-23)
(0.136362 0.00909337 3.02105e-22)
(0.134393 0.0457131 5.61644e-22)
(0.0901172 0.0234862 -5.38623e-22)
(0.0932727 0.0257223 0)
(0.101346 0.0293734 -4.35092e-22)
(0.100472 0.0332279 -3.80474e-22)
(0.110092 0.0374268 -2.86046e-22)
(0.11574 0.0336238 0)
(0.114311 0.0396966 0)
(0.138234 0.0434003 6.79371e-23)
(0.138099 0.0282242 2.30205e-22)
(0.131327 0.0368404 3.57735e-22)
(0.0954113 0.0198677 5.38628e-22)
(0.0978152 0.0239846 0)
(0.101911 0.0285224 4.35094e-22)
(0.10526 0.025413 3.80477e-22)
(0.111631 0.0326303 2.86048e-22)
(0.116814 0.0274194 0)
(0.121031 0.0344656 0)
(0.132221 0.0312314 -6.79402e-23)
(0.136707 0.017287 -2.30205e-22)
(0.137901 0.0247648 -3.57736e-22)
(0.0989745 0.0203336 0)
(0.100121 0.0226856 -4.1517e-22)
(0.106118 0.0240423 0)
(0.108483 0.0266282 -3.10411e-22)
(0.113396 0.0294165 0)
(0.118667 0.0266105 0)
(0.122824 0.0292562 0)
(0.132251 0.0291511 -3.99473e-23)
(0.135553 0.0234137 0)
(0.134402 0.0211742 0)
(0.101192 0.0182116 4.15408e-22)
(0.104102 0.0198704 7.99196e-22)
(0.107365 0.0234278 3.39995e-22)
(0.110458 0.0216938 3.10412e-22)
(0.11516 0.0250326 0)
(0.119907 0.0231932 -1.51475e-22)
(0.123829 0.0245812 0)
(0.129723 0.0211332 3.99475e-23)
(0.134501 0.0171275 0)
(0.136668 0.0157104 0)
(0.104151 0.0169481 -4.15409e-22)
(0.105706 0.0189325 -3.84026e-22)
(0.109553 0.0196734 -3.39995e-22)
(0.112667 0.0208802 0)
(0.116346 0.0221787 0)
(0.120202 0.0207241 1.51475e-22)
(0.124873 0.0213113 0)
(0.129372 0.019816 0)
(0.132444 0.0168925 0)
(0.134351 0.0137032 0)
(0.105655 0.0155155 0)
(0.107994 0.0163218 -3.35271e-22)
(0.110911 0.0182305 0)
(0.113677 0.0178098 -2.5268e-22)
(0.117312 0.0188154 0)
(0.120972 0.0179703 0)
(0.124426 0.0179112 -7.55275e-23)
(0.128125 0.015277 -8.22711e-24)
(0.131513 0.0133197 0)
(0.133547 0.010388 1.18953e-22)
(0.107526 0.0137958 0)
(0.109353 0.0149952 3.35271e-22)
(0.11209 0.0156508 0)
(0.114833 0.0159961 2.52681e-22)
(0.118005 0.0164616 0)
(0.120961 0.0156715 0)
(0.124507 0.015251 7.55277e-23)
(0.127429 0.0136462 8.22714e-24)
(0.129968 0.0118251 0)
(0.131916 0.00908309 -1.18953e-22)
(0.108715 0.0123863 1.62195e-22)
(0.110619 0.0129794 0)
(0.113033 0.0138408 0)
(0.115455 0.0138035 1.16082e-22)
(0.11837 0.0139758 0)
(0.121181 0.0133182 0)
(0.123956 0.0128468 0)
(0.126497 0.010957 1.91679e-23)
(0.128916 0.00953283 0)
(0.13061 0.00704371 0)
(0.109842 0.0107881 -6.959e-24)
(0.111569 0.0114453 0)
(0.113731 0.0118878 1.30186e-22)
(0.115995 0.0119459 -3.32109e-24)
(0.118655 0.0119769 0)
(0.12104 0.0113701 0)
(0.123611 0.0107375 4.86636e-23)
(0.125769 0.0093781 -1.91679e-23)
(0.127776 0.00804815 2.96582e-24)
(0.129346 0.005963 -1.84484e-23)
(0.110681 0.00936938 -5.66962e-24)
(0.112319 0.00979725 0)
(0.11428 0.0101671 -3.83735e-24)
(0.116339 0.0101549 -2.34875e-24)
(0.118722 0.0100623 9.20741e-23)
(0.120938 0.0094695 -7.23869e-23)
(0.123108 0.00890921 3.6995e-24)
(0.125019 0.00758854 3.17737e-23)
(0.126843 0.00647663 8.23258e-24)
(0.12823 0.00466474 1.01483e-23)
(0.111368 0.00794154 -1.49567e-22)
(0.112903 0.00830289 0)
(0.114681 0.0085302 -1.26349e-22)
(0.116578 0.00851044 -1.10412e-22)
(0.118746 0.00836601 -9.20741e-23)
(0.120719 0.00784311 1.46351e-22)
(0.122683 0.00726117 -5.23633e-23)
(0.124382 0.0062269 -3.17738e-23)
(0.125986 0.00523677 -1.11984e-23)
(0.127266 0.00375069 8.3001e-24)
(0.111894 0.0065978 0)
(0.113343 0.00685291 0)
(0.114979 0.00700634 0)
(0.11673 0.00697054 0)
(0.118682 0.00679523 0)
(0.120502 0.00630857 -7.39646e-23)
(0.122254 0.00580032 0)
(0.123801 0.00489366 0)
(0.125261 0.00406788 0)
(0.126438 0.00282674 0)
(0.112292 0.00529751 0)
(0.113668 0.00548214 0)
(0.11519 0.00557249 0)
(0.116813 0.00552896 0)
(0.118592 0.0053454 0)
(0.120263 0.00492804 -3.86566e-23)
(0.121878 0.00446635 0)
(0.123304 0.00374506 0)
(0.124643 0.00305097 0)
(0.125745 0.00206002 0)
(0.112581 0.00404839 0)
(0.113893 0.00417109 0)
(0.115334 0.00420991 5.91692e-23)
(0.116841 0.00416139 0)
(0.118483 0.00397932 4.66367e-23)
(0.120028 0.00362481 3.86566e-23)
(0.121544 0.00323543 0)
(0.122865 0.0026529 2.42908e-23)
(0.124126 0.00209722 0)
(0.125146 0.00131483 0)
(0.112771 0.00283731 0)
(0.114001 0.00291629 0)
(0.115392 0.00291366 -5.91692e-23)
(0.116754 0.00286067 0)
(0.118312 0.00269778 -4.66368e-23)
(0.119685 0.00240924 0)
(0.12116 0.00208843 0)
(0.122304 0.00165188 -2.42908e-23)
(0.123536 0.00122443 0)
(0.124373 0.000644917 0)
(0.112318 0.00164334 -1.68901e-23)
(0.113297 0.00167116 -1.58825e-23)
(0.114536 0.00162808 -1.47094e-23)
(0.115567 0.00156589 0)
(0.116982 0.00141583 -1.18498e-23)
(0.117934 0.0012173 0)
(0.11932 0.000951925 -8.44631e-24)
(0.119951 0.000659023 0)
(0.121112 0.000340239 -4.81664e-24)
(0.121296 -3.71084e-05 -2.99984e-24)
(0.0952912 0.000471719 1.68883e-23)
(0.0961075 0.000429343 1.58807e-23)
(0.0970032 0.00036523 1.47077e-23)
(0.0977021 0.000292119 0)
(0.0985444 0.000185118 1.18482e-23)
(0.0989722 7.56688e-05 0)
(0.0995467 -9.44239e-05 8.44503e-24)
(0.0993641 -0.000224905 0)
(0.0994523 -0.000394617 4.81582e-24)
(0.0985281 -0.000546143 2.9993e-24)
(-0.0119889 -0.00178004 0)
(-0.029847 0.00484722 0)
(-0.0589911 0.0104048 0)
(-0.0864034 0.00542824 0)
(-0.0810466 -0.0030275 0)
(-0.0594396 -0.00735921 0)
(-0.0343866 -0.00767283 0)
(-0.0101267 -0.00668067 0)
(0.00960368 -0.00524811 0)
(0.0254147 -0.00388634 0)
(0.0377353 -0.00275194 0)
(0.0470645 -0.00186727 0)
(0.0539248 -0.0012107 0)
(0.0588529 -0.000752025 0)
(0.062338 -0.000450625 0)
(0.06479 -0.000262936 0)
(0.0665251 -0.000150997 0)
(0.067771 -8.63481e-05 0)
(0.068684 -4.97731e-05 0)
(0.0693681 -2.92874e-05 0)
(0.0698923 -1.78195e-05 0)
(0.0703018 -1.13006e-05 0)
(0.0706272 -7.45778e-06 0)
(0.070889 -5.10471e-06 0)
(0.0711019 -3.61774e-06 0)
(0.0712764 -2.64953e-06 0)
(0.0714203 -1.97847e-06 0)
(0.0715399 -1.51051e-06 0)
(0.0716395 -1.18806e-06 0)
(0.0717229 -9.39405e-07 0)
(0.0717928 -8.54941e-07 0)
(0.071852 -6.46338e-07 0)
(0.0719013 -8.95268e-07 0)
(0.0719454 -5.76857e-07 0)
(0.0719787 -1.24012e-06 0)
(0.0720161 -8.51775e-07 0)
(0.0720357 -1.60368e-06 0)
(0.0720723 -1.64537e-06 0)
(0.0720801 -2.08669e-06 0)
(0.0721195 -3.14765e-06 0)
(-0.00840955 0.0315924 0)
(-0.0380483 0.0272315 0)
(-0.0667542 0.0286849 0)
(-0.0963196 0.0170874 0)
(-0.0845407 -0.0156994 0)
(-0.0615557 -0.0264351 0)
(-0.029618 -0.027991 0)
(-0.00379853 -0.0245271 0)
(0.0176003 -0.0202827 0)
(0.0347709 -0.0161839 0)
(0.0487562 -0.0125784 0)
(0.0600153 -0.00954978 0)
(0.0688886 -0.00709318 0)
(0.0757441 -0.00517913 0)
(0.0809669 -0.00374613 0)
(0.0849219 -0.00270827 0)
(0.0879223 -0.00197336 0)
(0.0902155 -0.00145846 0)
(0.0919871 -0.00109728 0)
(0.0933723 -0.00084116 0)
(0.0944685 -0.000656379 0)
(0.0953458 -0.000520262 0)
(0.0960547 -0.000417765 0)
(0.0966324 -0.000339005 0)
(0.0971064 -0.000277436 0)
(0.0974976 -0.000228602 0)
(0.0978219 -0.000189412 0)
(0.0980923 -0.000157575 0)
(0.0983179 -0.000131786 0)
(0.0985076 -0.000110155 0)
(0.0986659 -9.33402e-05 0)
(0.0988015 -7.76064e-05 0)
(0.0989117 -6.76792e-05 0)
(0.0990132 -5.52047e-05 0)
(0.0990862 -5.02297e-05 0)
(0.0991689 -4.07562e-05 0)
(0.0992122 -3.8038e-05 0)
(0.099286 -3.18279e-05 0)
(0.0993053 -3.06753e-05 0)
(0.0993774 -2.72245e-05 0)
(-0.0105954 0.035343 0)
(-0.0234191 0.0422868 0)
(-0.0688928 0.0476817 0)
(-0.0918944 0.0226476 0)
(-0.0846496 -0.028452 0)
(-0.0599876 -0.0495559 0)
(-0.0238065 -0.0492446 0)
(0.00394968 -0.0410908 0)
(0.0251356 -0.0330838 0)
(0.0404704 -0.0265126 0)
(0.0525212 -0.0210205 0)
(0.0624269 -0.0163635 0)
(0.0705543 -0.01249 0)
(0.0770765 -0.00939134 0)
(0.0822063 -0.00700958 0)
(0.0862 -0.00523478 0)
(0.0893065 -0.00393702 0)
(0.0917351 -0.00299493 0)
(0.093649 -0.00230942 0)
(0.0951706 -0.00180584 0)
(0.0963909 -0.00143072 0)
(0.0973775 -0.00114682 0)
(0.098181 -0.000928442 0)
(0.0988396 -0.000757903 0)
(0.0993822 -0.000622937 0)
(0.0998316 -0.000514875 0)
(0.100205 -0.000427594 0)
(0.100517 -0.000356318 0)
(0.100777 -0.000298353 0)
(0.100997 -0.000249625 0)
(0.101179 -0.000211432 0)
(0.101337 -0.000176107 0)
(0.101464 -0.000152765 0)
(0.101582 -0.00012525 0)
(0.101666 -0.000112282 0)
(0.101761 -9.15655e-05 0)
(0.101811 -8.39489e-05 0)
(0.101895 -6.93951e-05 0)
(0.101918 -6.61879e-05 0)
(0.101998 -5.59187e-05 0)
(0.0125139 0.0522007 0)
(-0.0115132 0.0649906 0)
(-0.0447032 0.0733452 0)
(-0.0629674 0.0347144 0)
(-0.0630542 -0.0395914 0)
(-0.0487059 -0.0777264 0)
(-0.0174603 -0.0756203 0)
(0.0103801 -0.0612942 0)
(0.034092 -0.0464828 0)
(0.0501792 -0.0356767 0)
(0.0608117 -0.0281363 0)
(0.0685591 -0.0222762 0)
(0.0748015 -0.0173851 0)
(0.079975 -0.0133394 0)
(0.0842036 -0.0101296 0)
(0.0876004 -0.00768067 0)
(0.0903085 -0.00585746 0)
(0.0924696 -0.00451269 0)
(0.0942037 -0.00351878 0)
(0.0956046 -0.00277738 0)
(0.096744 -0.00221709 0)
(0.0976762 -0.00178757 0)
(0.0984429 -0.00145367 0)
(0.0990763 -0.00119067 0)
(0.0996014 -0.000981129 0)
(0.100039 -0.000812462 0)
(0.100403 -0.000675709 0)
(0.100709 -0.000563686 0)
(0.100965 -0.000472383 0)
(0.101181 -0.000395495 0)
(0.101361 -0.000335003 0)
(0.101516 -0.000279306 0)
(0.101641 -0.000241748 0)
(0.101758 -0.000198728 0)
(0.101841 -0.000177071 0)
(0.101936 -0.000144752 0)
(0.101985 -0.000131898 0)
(0.102068 -0.000108415 0)
(0.10209 -0.00010308 0)
(0.102169 -8.53575e-05 0)
(-0.0244199 0.0393878 0)
(-0.0187089 0.0786206 0)
(-0.0153026 0.0790806 0)
(-0.00757717 0.0387773 0)
(-0.0122671 -0.0364282 0)
(-0.00766906 -0.0870926 0)
(0.00402162 -0.0928637 0)
(0.0171876 -0.0804057 0)
(0.0354543 -0.0625509 0)
(0.0533405 -0.0460776 0)
(0.0663519 -0.034336 0)
(0.0745818 -0.0264381 0)
(0.0798954 -0.020681 0)
(0.0837731 -0.0161283 0)
(0.086893 -0.0124796 0)
(0.089487 -0.00962265 0)
(0.0916462 -0.0074414 0)
(0.0934355 -0.00579947 0)
(0.0949148 -0.00456601 0)
(0.0961381 -0.00363329 0)
(0.0971514 -0.00292001 0)
(0.0979924 -0.00236745 0)
(0.098692 -0.00193392 0)
(0.0992752 -0.00158976 0)
(0.0997623 -0.00131374 0)
(0.10017 -0.00109036 0)
(0.100512 -0.000908465 0)
(0.100799 -0.000758949 0)
(0.10104 -0.000636734 0)
(0.101245 -0.00053362 0)
(0.101415 -0.000452199 0)
(0.101563 -0.000377383 0)
(0.101681 -0.000326367 0)
(0.101793 -0.000268695 0)
(0.101871 -0.000238838 0)
(0.101961 -0.000195436 0)
(0.102009 -0.000177672 0)
(0.102087 -0.000145614 0)
(0.102109 -0.000138262 0)
(0.102184 -0.000113333 0)
(-0.0164671 0.0855743 0)
(0.0494825 0.067416 0)
(0.0687485 0.0724869 0)
(0.0636816 0.0428176 0)
(0.0566591 -0.0320514 0)
(0.0480962 -0.0860304 0)
(0.0474369 -0.0907474 0)
(0.0455814 -0.0816236 0)
(0.0462454 -0.0713239 0)
(0.0545529 -0.0571954 0)
(0.0661008 -0.0429459 0)
(0.0761358 -0.0317096 0)
(0.0829037 -0.0237319 0)
(0.0870123 -0.0181112 0)
(0.0896466 -0.0140153 0)
(0.0915983 -0.0109358 0)
(0.0932078 -0.00858909 0)
(0.0945871 -0.00679514 0)
(0.0957736 -0.00541958 0)
(0.0967885 -0.00435834 0)
(0.0976517 -0.00353232 0)
(0.0983829 -0.00288285 0)
(0.0990007 -0.00236704 0)
(0.099522 -0.00195355 0)
(0.0999615 -0.00161937 0)
(0.100332 -0.00134727 0)
(0.100644 -0.00112465 0)
(0.100908 -0.000940977 0)
(0.101131 -0.000790379 0)
(0.101319 -0.000663049 0)
(0.101477 -0.000562193 0)
(0.101614 -0.000469593 0)
(0.101725 -0.000405988 0)
(0.101828 -0.000334621 0)
(0.101902 -0.000297076 0)
(0.101985 -0.000243231 0)
(0.10203 -0.00022086 0)
(0.102103 -0.000180686 0)
(0.102123 -0.000171397 0)
(0.102193 -0.000139658 0)
(-0.0108792 0.01402 0)
(0.0689484 0.00397494 0)
(0.102141 0.0623448 0)
(0.11126 0.0525855 0)
(0.119431 -0.0216834 0)
(0.10196 -0.084252 0)
(0.0802258 -0.0946691 0)
(0.0802303 -0.0786872 0)
(0.0795899 -0.0666577 0)
(0.0755608 -0.0584286 0)
(0.0747671 -0.0487334 0)
(0.0786413 -0.0379616 0)
(0.0841322 -0.0283227 0)
(0.0885977 -0.0209928 0)
(0.0914928 -0.015863 0)
(0.0933362 -0.01227 0)
(0.09466 -0.00965171 0)
(0.0957392 -0.00767879 0)
(0.0966742 -0.00616412 0)
(0.0974938 -0.00498788 0)
(0.0982083 -0.00406515 0)
(0.098826 -0.0033339 0)
(0.0993564 -0.00274879 0)
(0.0998096 -0.00227658 0)
(0.100196 -0.00189265 0)
(0.100524 -0.00157842 0)
(0.100802 -0.00132019 0)
(0.101038 -0.00110635 0)
(0.101238 -0.000930471 0)
(0.101409 -0.000781423 0)
(0.101552 -0.000663041 0)
(0.101676 -0.000554316 0)
(0.101777 -0.000479263 0)
(0.101871 -0.000395378 0)
(0.101938 -0.000350808 0)
(0.102014 -0.000287345 0)
(0.102055 -0.000260746 0)
(0.102122 -0.000213073 0)
(0.10214 -0.000201996 0)
(0.102204 -0.000163947 0)
(0.137375 0.0459026 0)
(0.134338 -0.00934792 0)
(0.139925 0.032124 0)
(0.150699 0.0395552 0)
(0.174753 -0.0199917 0)
(0.171142 -0.0585732 0)
(0.130053 -0.0767402 0)
(0.107853 -0.0814696 0)
(0.110523 -0.0693571 0)
(0.112798 -0.05334 0)
(0.105297 -0.0437744 0)
(0.0966234 -0.037344 0)
(0.092811 -0.0300721 0)
(0.0927668 -0.022717 0)
(0.093997 -0.0168777 0)
(0.0952573 -0.0128114 0)
(0.0962551 -0.010045 0)
(0.0970425 -0.00807757 0)
(0.0977113 -0.00659008 0)
(0.0983097 -0.00541613 0)
(0.0988515 -0.00446991 0)
(0.0993373 -0.00370048 0)
(0.0997669 -0.00307214 0)
(0.100142 -0.00255732 0)
(0.100467 -0.00213414 0)
(0.100747 -0.00178501 0)
(0.100986 -0.00149639 0)
(0.101191 -0.00125628 0)
(0.101365 -0.00105809 0)
(0.101514 -0.000889667 0)
(0.10164 -0.000755541 0)
(0.10175 -0.000632218 0)
(0.101838 -0.000546776 0)
(0.101922 -0.000451445 0)
(0.101981 -0.000400454 0)
(0.102049 -0.000328146 0)
(0.102085 -0.000297658 0)
(0.102144 -0.000243063 0)
(0.102161 -0.000230326 0)
(0.102217 -0.000186416 0)
(0.15117 0.0509951 0)
(0.162039 -0.00422484 0)
(0.152786 0.0343985 0)
(0.176045 0.0366977 0)
(0.196695 -0.0277048 0)
(0.181099 -0.0560228 0)
(0.165343 -0.0518523 0)
(0.14165 -0.0625129 0)
(0.121634 -0.0708789 0)
(0.120989 -0.057509 0)
(0.12438 -0.0390214 0)
(0.119566 -0.0291272 0)
(0.110537 -0.0252894 0)
(0.1033 -0.0220252 0)
(0.0994109 -0.0181049 0)
(0.0979653 -0.0143544 0)
(0.0977711 -0.011295 0)