/*--------------------------------*- C++ -*----------------------------------*\
| =========                 |                                                 |
| \\      /  F ield         | OpenFOAM: The Open Source CFD Toolbox           |
|  \\    /   O peration     | Version:  2112                                  |
|   \\  /    A nd           | Website:  www.openfoam.com                      |
|    \\/     M anipulation  |                                                 |
\*---------------------------------------------------------------------------*/
FoamFile
{
    version     2.0;
    format      ascii;
    arch        "LSB;label=32;scalar=64";
    class       volScalarField;
    location    "0.32";
    object      nut;
}
// * * * * * * * * * * * * * * * * * * * * * * * * * * * * * * * * * * * * * //

dimensions      [0 2 -1 0 0 0 0];

internalField   nonuniform List<scalar> 
1880
(
3.41737e-11
3.52924e-12
6.86098e-13
6.21192e-14
1.2755e-14
2.21868e-13
1.5969e-14
2.29416e-14
1.10022e-14
2.79209e-14
3.27028e-14
1.00843e-13
6.2292e-14
1.22883e-13
2.73871e-13
6.95571e-14
8.25627e-14
2.05228e-14
5.92219e-13
3.12485e-13
5.10095e-13
2.36632e-12
4.60258e-13
2.90643e-12
1.94765e-13
5.20853e-12
1.1104e-10
1.492e-11
8.80193e-10
1.1373e-09
4.28062e-09
5.54825e-09
2.94683e-09
5.39842e-11
1.84012e-10
2.02759e-11
3.34701e-11
4.95125e-12
2.73816e-13
6.7335e-12
4.88562e-13
1.27247e-11
2.15472e-13
4.19893e-12
8.24582e-12
6.22253e-12
1.23677e-11
1.11294e-11
5.37757e-11
9.45222e-11
4.90556e-10
1.81906e-10
6.60768e-10
2.95248e-10
7.51278e-11
1.43046e-09
3.64508e-10
1.19804e-09
5.95735e-09
9.75504e-09
1.84367e-09
2.83304e-09
1.48361e-09
1.98669e-10
8.16845e-10
9.60119e-10
1.87179e-09
2.11085e-09
2.58936e-09
1.88565e-09
1.30904e-10
2.95306e-09
4.66315e-11
1.00258e-09
1.73294e-09
4.52148e-13
4.38919e-09
7.27572e-11
5.4341e-10
4.71543e-09
5.56311e-12
6.03451e-09
3.08525e-09
1.20357e-09
9.85725e-09
7.15374e-09
3.25478e-09
2.67276e-08
2.15857e-08
9.76014e-09
1.76926e-10
2.53046e-09
5.46056e-10
4.81974e-09
5.4378e-10
1.52757e-09
4.38836e-10
1.06935e-09
1.3899e-08
4.29935e-09
1.26639e-08
1.14594e-09
1.48287e-08
9.17041e-10
2.42138e-08
6.75165e-09
8.90541e-09
5.93663e-09
9.29305e-09
8.94288e-09
8.50032e-09
8.65069e-09
6.49707e-09
7.77651e-09
9.69678e-09
1.58978e-08
1.64535e-08
2.31656e-08
3.07627e-08
2.88661e-08
1.11824e-10
6.23201e-10
1.68649e-09
6.13043e-11
2.35058e-09
6.98942e-10
2.93375e-09
1.68832e-09
6.93186e-09
3.89377e-09
4.04391e-09
7.33766e-10
1.55342e-09
1.351e-09
2.51304e-08
4.10976e-09
2.51035e-08
4.13957e-09
3.80013e-09
6.65432e-09
4.53346e-09
8.07599e-09
1.91993e-09
7.31087e-09
5.92123e-09
1.41643e-08
1.09012e-08
2.18325e-08
2.21732e-08
2.57739e-08
3.07593e-11
4.25599e-11
4.09308e-10
1.08874e-09
8.1653e-10
2.36544e-09
6.10221e-10
3.50755e-09
3.3327e-09
4.06204e-09
3.96602e-10
1.95042e-09
6.41511e-10
7.46661e-10
5.01184e-10
1.34515e-09
2.34934e-11
3.30968e-09
8.84736e-10
2.9266e-09
3.90264e-09
5.98418e-09
6.26449e-09
8.84627e-09
1.01061e-08
1.24222e-08
1.39205e-08
1.6777e-08
2.32005e-08
2.22883e-08
4.74024e-11
9.336e-11
1.43154e-09
7.63208e-10
3.21719e-09
1.62971e-09
3.12971e-09
2.78582e-09
5.88437e-09
2.69784e-09
2.17387e-09
3.87585e-10
1.21514e-09
9.54424e-10
1.21964e-09
2.92699e-09
1.77802e-09
2.03874e-09
2.7845e-09
3.32459e-09
4.82328e-09
5.70642e-09
7.06909e-09
7.07385e-09
9.82092e-09
1.1038e-08
1.27088e-08
1.51531e-08
1.9361e-08
2.02431e-08
3.49712e-11
1.59842e-11
9.3056e-10
1.1967e-09
2.07787e-09
1.91619e-09
1.6848e-09
2.94423e-09
3.49657e-09
2.81377e-09
1.73634e-09
4.08565e-10
2.18021e-09
1.89613e-09
2.33398e-09
1.84288e-09
3.49639e-09
5.20329e-09
4.60685e-09
4.04472e-09
6.19717e-09
6.6739e-09
8.04577e-09
8.47033e-09
1.09641e-08
1.14613e-08
1.37376e-08
1.47014e-08
1.92844e-08
1.85807e-08
5.90122e-11
9.06621e-12
1.09954e-09
1.41778e-09
2.30352e-09
1.74472e-09
1.8735e-09
2.33543e-09
3.11432e-09
2.25747e-09
1.79757e-09
2.07812e-09
2.02715e-09
2.07775e-09
2.86506e-09
2.02292e-09
4.28577e-09
5.40754e-09
5.11171e-09
4.87291e-09
6.2068e-09
6.22398e-09
7.83326e-09
7.72905e-09
1.01338e-08
1.10686e-08
1.29273e-08
1.38382e-08
1.72264e-08
1.79185e-08
7.99976e-11
3.52067e-12
9.96631e-10
1.48586e-09
1.95101e-09
1.6608e-09
1.7122e-09
2.18626e-09
2.70604e-09
2.38234e-09
2.28972e-09
2.16572e-09
2.62296e-09
3.09022e-09
3.32027e-09
2.75492e-09
4.90237e-09
5.74618e-09
5.29315e-09
4.95107e-09
6.38539e-09
6.76206e-09
8.00463e-09
8.22774e-09
1.02727e-08
1.08224e-08
1.27782e-08
1.33997e-08
1.64294e-08
1.68384e-08
1.47739e-10
1.56009e-10
9.83438e-10
1.5778e-09
1.7034e-09
1.6819e-09
1.72261e-09
2.16619e-09
2.10051e-09
2.51943e-09
2.75103e-09
2.75039e-09
2.72061e-09
3.419e-09
3.54536e-09
3.17685e-09
4.73836e-09
5.83081e-09
5.0185e-09
5.24105e-09
6.15551e-09
6.66194e-09
7.88896e-09
8.25269e-09
9.83837e-09
1.06187e-08
1.21206e-08
1.29332e-08
1.51659e-08
1.61501e-08
2.26427e-10
5.2318e-10
1.00731e-09
1.521e-09
1.73048e-09
1.72565e-09
1.94535e-09
2.20086e-09
2.44347e-09
2.64675e-09
2.85922e-09
3.05785e-09
3.16048e-09
3.75601e-09
3.88603e-09
3.51369e-09
4.87555e-09
5.30463e-09
5.25705e-09
5.52956e-09
6.40397e-09
6.95905e-09
8.03597e-09
8.31268e-09
9.76048e-09
1.03188e-08
1.18259e-08
1.25765e-08
1.45465e-08
1.54115e-08
4.61979e-11
5.66449e-10
8.65515e-10
1.54094e-09
1.50187e-09
1.7859e-09
2.15785e-09
2.26117e-09
2.16761e-09
2.78076e-09
3.19585e-09
2.94311e-09
3.14667e-09
4.19635e-09
3.90058e-09
3.80424e-09
4.4846e-09
5.46464e-09
5.34222e-09
5.75693e-09
6.47376e-09
7.15989e-09
8.01246e-09
8.48834e-09
9.36767e-09
1.01525e-08
1.13343e-08
1.22224e-08
1.36631e-08
1.46628e-08
4.26793e-13
6.18035e-10
9.20885e-10
1.41099e-09
1.68421e-09
1.9087e-09
2.21498e-09
2.36568e-09
2.43781e-09
2.89243e-09
3.14135e-09
3.29349e-09
3.44312e-09
4.17165e-09
4.13447e-09
4.19285e-09
4.7787e-09
5.33664e-09
5.56549e-09
6.1034e-09
6.7404e-09
7.32961e-09
8.18818e-09
8.53615e-09
9.42544e-09
1.00815e-08
1.11602e-08
1.19839e-08
1.32765e-08
1.41508e-08
1.98594e-12
2.33142e-10
4.52166e-10
1.32231e-09
1.28927e-09
1.68727e-09
2.4608e-09
2.10229e-09
2.03881e-09
2.80478e-09
3.16107e-09
2.90613e-09
3.22522e-09
4.35088e-09
4.02514e-09
4.19927e-09
4.55668e-09
5.51444e-09
5.65689e-09
5.98236e-09
6.70457e-09
7.51183e-09
8.14203e-09
8.63259e-09
9.1209e-09
9.85748e-09
1.07246e-08
1.14342e-08
1.24112e-08
1.32949e-08
2.71288e-11
1.01912e-09
1.13167e-09
1.42496e-09
1.55538e-09
1.84198e-09
2.021e-09
2.28086e-09
2.43747e-09
2.81238e-09
2.93767e-09
3.25314e-09
3.35231e-09
4.14915e-09
4.03017e-09
4.51133e-09
4.75269e-09
5.49304e-09
5.63203e-09
6.22465e-09
6.83518e-09
7.51487e-09
8.24115e-09
8.78064e-09
9.36787e-09
1.00112e-08
1.06527e-08
1.12612e-08
1.21e-08
1.28431e-08
1.41996e-12
3.1727e-12
1.58564e-10
9.16728e-10
1.10534e-09
1.03519e-09
1.69488e-09
1.20641e-09
1.35535e-09
2.24889e-09
2.60624e-09
2.37088e-09
2.95569e-09
4.15215e-09
3.72889e-09
4.23485e-09
4.71658e-09
5.61516e-09
5.55112e-09
5.93982e-09
6.5947e-09
7.4713e-09
8.05734e-09
8.61476e-09
9.09103e-09
9.61144e-09
1.00768e-08
1.03956e-08
1.08796e-08
1.15811e-08
1.91999e-09
2.6871e-09
1.54312e-09
1.66419e-09
1.90126e-09
2.34956e-09
2.86956e-09
3.8305e-09
3.27805e-09
2.68089e-09
1.85078e-09
1.71081e-09
4.42512e-10
3.03955e-10
1.06784e-10
1.37082e-10
1.73717e-11
1.46457e-11
1.29742e-12
1.10791e-11
5.55119e-12
1.51547e-13
5.22158e-14
1.40185e-12
4.00528e-12
3.53512e-12
5.77512e-12
4.31319e-11
1.81e-10
7.3219e-10
4.97508e-09
5.57675e-09
1.02245e-09
1.6076e-10
2.83799e-11
3.30103e-12
3.15311e-12
1.52983e-14
3.37308e-13
1.20354e-12
5.97009e-13
8.76698e-14
2.83446e-12
3.08072e-12
1.16249e-12
9.6852e-13
2.4584e-12
4.12376e-12
5.78524e-12
1.02068e-11
1.04862e-11
5.83797e-12
5.26235e-12
8.1751e-12
1.59718e-11
3.00591e-11
3.52997e-11
2.8009e-11
1.77759e-11
6.58682e-12
3.45154e-11
4.74606e-12
2.46062e-13
1.01182e-14
6.46595e-14
4.04415e-14
1.34668e-15
7.70535e-16
1.22789e-16
5.05354e-18
6.75703e-17
7.09267e-15
1.12629e-14
4.52298e-16
4.91991e-16
3.53849e-15
4.62957e-14
5.94186e-14
2.14219e-14
5.33551e-15
6.2622e-16
4.72919e-15
7.28026e-14
3.41161e-13
6.79237e-13
6.72591e-13
3.54556e-13
1.27473e-13
2.19268e-14
1.00385e-16
1.36192e-09
3.87129e-10
4.31451e-10
8.81249e-11
1.33803e-10
8.22855e-11
8.8098e-11
2.63815e-10
1.89456e-09
2.78501e-09
1.06997e-08
9.84895e-09
1.79922e-08
1.2671e-08
8.86218e-09
2.29268e-08
8.84459e-10
4.09328e-10
2.29637e-10
8.20145e-08
6.02985e-08
5.44687e-08
6.91525e-09
3.42749e-08
4.43445e-08
6.93506e-08
8.20616e-08
9.23646e-08
6.06587e-07
9.87979e-08
4.88929e-08
4.25619e-08
4.47463e-08
3.53241e-08
3.73904e-08
3.18266e-08
3.17997e-08
4.72995e-08
4.15409e-08
1.57706e-08
3.95028e-08
3.32535e-08
3.05966e-08
3.57549e-08
3.79245e-08
4.58739e-08
3.92909e-08
3.07905e-08
4.68606e-08
1.53581e-08
3.99606e-08
2.94587e-08
3.1897e-08
2.90257e-08
3.28919e-08
3.61384e-08
3.19268e-08
4.26924e-08
4.83985e-08
2.85729e-08
3.00177e-08
2.63315e-08
2.76119e-08
2.83331e-08
3.01353e-08
3.3151e-08
3.26948e-08
3.50858e-08
3.91888e-08
3.1725e-08
2.95389e-08
2.36411e-08
2.65546e-08
2.6217e-08
2.81065e-08
3.09949e-08
2.92405e-08
3.31768e-08
3.45907e-08
2.90288e-08
2.46071e-08
2.21821e-08
2.42215e-08
2.43761e-08
2.57127e-08
2.88077e-08
2.81364e-08
2.81084e-08
2.93845e-08
2.71474e-08
2.32094e-08
2.02589e-08
2.27664e-08
2.34115e-08
2.40883e-08
2.61398e-08
2.5744e-08
2.65601e-08
2.61656e-08
2.29597e-08
2.03934e-08
1.91613e-08
2.11396e-08
2.17058e-08
2.2341e-08
2.44888e-08
2.38992e-08
2.31191e-08
2.34745e-08
2.2029e-08
1.90899e-08
1.78692e-08
1.98768e-08
2.0666e-08
2.07813e-08
2.20974e-08
2.22657e-08
2.18385e-08
2.10295e-08
1.92011e-08
1.71168e-08
1.6907e-08
1.8493e-08
1.92877e-08
1.96004e-08
2.06599e-08
2.03467e-08
1.97292e-08
1.94156e-08
1.8016e-08
1.62301e-08
1.59682e-08
1.74247e-08
1.81538e-08
1.83431e-08
1.89961e-08
1.89771e-08
1.83963e-08
1.77337e-08
1.63965e-08
1.4626e-08
1.4979e-08
1.62139e-08
1.69927e-08
1.72923e-08
1.77833e-08
1.75439e-08
1.70154e-08
1.6495e-08
1.52788e-08
1.40506e-08
1.41605e-08
1.52213e-08
1.585e-08
1.62072e-08
1.65563e-08
1.64625e-08
1.59854e-08
1.54187e-08
1.43056e-08
1.23652e-08
1.28085e-08
1.39355e-08
1.45805e-08
1.51594e-08
1.53745e-08
1.54563e-08
1.48259e-08
1.4482e-08
1.30505e-08
1.68872e-09
1.71003e-09
3.42449e-09
3.61241e-09
5.06163e-09
4.52721e-09
5.37875e-09
4.10464e-09
4.15042e-09
2.71031e-09
1.58721e-12
3.54704e-13
4.76849e-14
1.91354e-12
4.83198e-12
1.09405e-11
1.63938e-11
2.14264e-11
2.22377e-11
2.01643e-11
1.18002e-14
8.41225e-15
1.50914e-14
1.96297e-14
2.34857e-14
3.98657e-14
4.27008e-14
6.74407e-14
5.36742e-14
3.77136e-14
6.28151e-08
5.68766e-09
4.77554e-08
4.1275e-08
2.71987e-08
1.30993e-08
2.83022e-09
7.55551e-10
2.0108e-10
1.75524e-10
1.4266e-10
4.48948e-10
1.16683e-09
5.75796e-09
2.11749e-08
9.04592e-08
1.14906e-07
2.29258e-08
2.89019e-09
4.57597e-10
9.81863e-11
2.73019e-11
8.46154e-12
2.48817e-12
5.29183e-13
3.21879e-14
5.45502e-16
3.89265e-14
1.14008e-13
1.65019e-13
1.54696e-13
1.10792e-13
6.0711e-14
2.82163e-14
1.05916e-14
3.58929e-15
1.0636e-15
2.56707e-16
1.1475e-16
4.9324e-16
6.66943e-08
9.07925e-07
3.49636e-09
5.3263e-08
1.67995e-07
1.40779e-07
1.96054e-09
8.91203e-07
4.82878e-07
9.12821e-09
1.77623e-10
1.31111e-08
3.36517e-08
7.08423e-08
1.05846e-07
1.15688e-07
1.04586e-07
8.95049e-08
7.24196e-08
5.44493e-08
3.7998e-08
2.37734e-08
1.20209e-08
4.44998e-09
1.29033e-09
3.06815e-10
5.45059e-11
5.27876e-12
1.10732e-13
2.79319e-13
1.10508e-12
1.41802e-12
1.3726e-12
9.59346e-13
6.67196e-13
3.72917e-13
2.3715e-13
1.13593e-13
6.73551e-14
2.30797e-14
4.93949e-08
2.12063e-09
1.08657e-08
1.25394e-07
8.4938e-09
3.75595e-07
1.32877e-06
1.3757e-06
5.81922e-07
8.55865e-08
8.09409e-09
3.71424e-10
1.86122e-10
1.33514e-08
5.47884e-08
9.04841e-08
9.25227e-08
8.20237e-08
7.35391e-08
6.3829e-08
5.29575e-08
4.56342e-08
4.01203e-08
3.35117e-08
2.60154e-08
1.32112e-08
2.52017e-09
1.47611e-10
6.19584e-13
4.58869e-12
9.84281e-12
6.95192e-12
3.85878e-12
1.66103e-12
9.77638e-13
5.16687e-13
4.88368e-13
3.09987e-13
3.12337e-13
1.76745e-13
4.06351e-08
4.10284e-09
1.48554e-07
1.29222e-07
2.25918e-09
3.52905e-07
1.3472e-06
1.54734e-06
8.31602e-07
1.80381e-07
2.67229e-08
9.2458e-09
3.75191e-09
9.64567e-12
1.80014e-08
7.3766e-08
9.74912e-08
8.04976e-08
6.6398e-08
6.22239e-08
5.11164e-08
3.73851e-08
2.85448e-08
1.4309e-08
3.21242e-09
1.36097e-09
2.48389e-09
7.16733e-09
1.68809e-09
1.4843e-11
2.47219e-10
1.22854e-10
1.71356e-11
3.50999e-13
1.32533e-12
1.93734e-12
1.65097e-13
5.28499e-15
4.25046e-13
2.47382e-12
3.7653e-08
6.5567e-08
1.43252e-07
9.93866e-08
2.10013e-08
9.97554e-07
2.0836e-06
2.07631e-06
1.32656e-06
3.72582e-07
5.13419e-08
2.81631e-08
3.62492e-08
7.58562e-09
9.62086e-10
3.67433e-08
9.51308e-08
9.13004e-08
6.06521e-08
5.00003e-08
3.89001e-08
2.4596e-08
1.90602e-08
8.24064e-09
1.85128e-08
5.34514e-09
6.0537e-10
1.17082e-11
4.07882e-11
6.85467e-10
2.67799e-09
1.15218e-09
5.80384e-10
3.75384e-11
7.00292e-12
1.01083e-10
1.14896e-10
5.66159e-11
1.80043e-12
1.80058e-11
2.3269e-06
1.09241e-07
1.01383e-07
4.26786e-08
1.24557e-08
3.31031e-07
1.24811e-06
1.62435e-06
1.26389e-06
5.07027e-07
8.15948e-08
3.02358e-08
6.70536e-08
4.86565e-08
9.92523e-13
2.4049e-08
7.51604e-08
8.28783e-08
6.05381e-08
4.02919e-08
3.22145e-08
6.77468e-09
1.01827e-09
5.96639e-09
9.5133e-09
4.5859e-08
1.29481e-09
1.16588e-12
8.28317e-11
2.84014e-10
5.6845e-10
8.4444e-10
1.13681e-09
1.25782e-09
1.10764e-09
4.4876e-10
2.89309e-10
2.86389e-10
1.76156e-10
2.4332e-10
4.34145e-08
1.74753e-07
2.04717e-07
2.27206e-07
7.97409e-09
2.19377e-07
1.86874e-06
2.31026e-06
2.05793e-06
1.3405e-06
4.13477e-07
1.13888e-07
9.88826e-08
7.17384e-08
1.62198e-10
5.11098e-08
7.78581e-08
6.22547e-08
8.21048e-09
1.35576e-08
2.89731e-08
2.14767e-08
2.40774e-09
2.18862e-09
1.46415e-08
2.74746e-09
2.08098e-10
4.36417e-09
1.17497e-08
6.75501e-09
3.69747e-09
2.14277e-09
1.33261e-09
7.70432e-10
4.1121e-10
1.74862e-10
3.05201e-11
4.70945e-13
7.49217e-11
2.09878e-10
1.70453e-08
1.93694e-08
4.45977e-09
5.21486e-08
5.25287e-08
5.35577e-09
2.13584e-07
1.57323e-06
1.86526e-06
1.58073e-06
7.61028e-07
3.2947e-07
1.89126e-07
1.77727e-08
1.30922e-08
8.75929e-08
8.5374e-08
7.30432e-08
4.9085e-08
1.61119e-08
1.8655e-08
2.70601e-08
2.57874e-08
2.26672e-08
2.36857e-08
1.25956e-08
2.094e-10
1.55814e-11
9.87372e-13
5.06917e-10
5.11676e-09
1.19283e-08
9.03524e-09
3.55292e-09
8.91037e-10
5.44076e-11
9.07286e-12
4.6477e-10
7.75373e-10
1.55524e-10
2.15995e-07
1.43767e-08
1.5808e-09
1.71116e-09
7.69521e-09
9.77136e-08
8.26993e-07
1.49283e-06
1.6824e-06
1.53767e-06
1.02893e-06
5.56429e-07
2.10892e-07
3.17036e-09
7.73378e-08
9.36703e-08
7.89129e-08
6.39761e-08
4.84785e-08
3.68474e-08
3.649e-08
3.36948e-08
2.9804e-08
2.48973e-08
1.94524e-08
1.62027e-08
1.39871e-08
8.18867e-09
1.43801e-09
1.34937e-10
8.9759e-11
3.15355e-10
1.3611e-09
4.21862e-09
6.32703e-09
3.98532e-09
5.59611e-10
5.21257e-13
3.31429e-10
6.6208e-12
5.51388e-08
8.07312e-10
5.60363e-08
1.28066e-08
4.06449e-09
2.10058e-07
1.17415e-06
1.35385e-06
1.38631e-06
1.32112e-06
7.95122e-07
1.65983e-07
2.05513e-08
9.30639e-08
5.59418e-08
2.11352e-08
5.31417e-08
3.84101e-08
3.7438e-08
4.09721e-08
3.38924e-08
2.66533e-08
2.73897e-08
2.76624e-08
1.98182e-08
4.62408e-09
1.48055e-09
2.96819e-09
1.4443e-09
4.1662e-09
1.48879e-08
3.04482e-08
3.69395e-09
2.84427e-09
2.88384e-09
3.43331e-09
3.36422e-09
2.64692e-09
1.2022e-09
3.74748e-11
4.62319e-08
5.48994e-08
1.27899e-08
3.4518e-10
1.76922e-08
5.09328e-10
3.21122e-07
5.65579e-07
1.76226e-07
8.13446e-12
1.85165e-08
6.4115e-08
6.79291e-08
7.24885e-08
7.93989e-08
5.15794e-08
3.79953e-08
3.33049e-08
3.41977e-08
1.15058e-08
1.56138e-09
2.12952e-08
1.63044e-08
1.38384e-08
2.74838e-09
9.3709e-11
1.08065e-08
1.44358e-08
8.80301e-09
1.53141e-08
4.7156e-09
1.31186e-09
7.1705e-10
1.18299e-09
3.37179e-09
8.83909e-10
2.30143e-09
2.6671e-09
1.96749e-09
8.41526e-10
6.72234e-08
1.16891e-08
3.49288e-08
4.62959e-08
5.35675e-08
6.37187e-08
5.23963e-08
3.41605e-08
6.03374e-08
6.71093e-08
6.70791e-08
7.43698e-08
6.99717e-08
5.20505e-08
5.18701e-08
4.4904e-08
4.21488e-08
2.14603e-08
3.11039e-08
3.42035e-08
8.39918e-09
3.93204e-09
1.51286e-08
1.07504e-08
7.51273e-09
1.53769e-07
1.69582e-07
2.44505e-09
3.60357e-10
3.91728e-10
4.14705e-10
2.18201e-09
6.06045e-09
8.26815e-11
2.32453e-09
6.29409e-09
5.91597e-09
2.23423e-09
1.40474e-11
2.35876e-10
2.25203e-08
1.60113e-08
4.20954e-08
3.18154e-08
3.57521e-08
5.39374e-08
5.78268e-08
5.90682e-08
6.45712e-08
6.15812e-08
5.91424e-08
6.31697e-08
5.85736e-08
4.90042e-08
3.65927e-08
4.12325e-08
4.68231e-08
3.80135e-08
2.41675e-08
2.58094e-08
1.21519e-08
1.54563e-08
2.17514e-08
1.93866e-08
2.01479e-08
1.75258e-08
1.33283e-08
1.43431e-08
1.23125e-08
1.30268e-09
1.23006e-10
7.10832e-11
1.39887e-10
6.99636e-10
1.85506e-09
3.76199e-09
4.92482e-09
3.92032e-09
1.95986e-09
6.72968e-10
3.30004e-08
3.27188e-08
4.16991e-08
3.24532e-08
3.39908e-08
4.35615e-08
4.42276e-08
4.5597e-08
4.86351e-08
5.01327e-08
4.44409e-08
4.74769e-08
5.07996e-08
5.06176e-08
4.03401e-08
2.98624e-08
2.93124e-08
3.05677e-08
2.61357e-08
2.32291e-08
2.10048e-08
2.26994e-08
2.20925e-08
8.91556e-09
3.3758e-09
1.50512e-08
3.3864e-09
5.65736e-10
1.84559e-08
7.70076e-10
9.8718e-09
3.36484e-08
7.39623e-08
7.61602e-08
3.28931e-09
3.35652e-10
1.94258e-09
1.76135e-09
1.45411e-09
7.11222e-10
2.1658e-08
2.87251e-08
3.74748e-08
3.55993e-08
3.32809e-08
3.46138e-08
3.56905e-08
3.82466e-08
4.22105e-08
4.25059e-08
4.21762e-08
3.28366e-08
4.15583e-08
4.18544e-08
3.51913e-08
3.58368e-08
2.88196e-08
1.96031e-08
2.62707e-08
2.44989e-08
1.46089e-08
2.71699e-10
1.32836e-08
1.13007e-08
8.37097e-09
8.70146e-09
7.71865e-10
1.95568e-09
9.571e-09
7.49318e-09
6.98795e-09
6.80969e-09
7.32093e-08
8.64903e-08
3.47161e-08
7.74371e-09
1.69534e-10
1.96464e-11
7.684e-10
1.21159e-09
2.28376e-08
2.79233e-08
3.20215e-08
3.23369e-08
3.12544e-08
3.10564e-08
3.02436e-08
3.09293e-08
3.27526e-08
3.63178e-08
3.41896e-08
3.53257e-08
2.83161e-08
3.15486e-08
3.22674e-08
3.02933e-08
2.81058e-08
2.20326e-08
1.64162e-08
2.12395e-08
2.36842e-08
1.7716e-08
1.55513e-08
1.46647e-08
1.18728e-08
1.36124e-08
8.04418e-09
2.24081e-09
4.18625e-09
4.78076e-09
9.51269e-12
2.41049e-11
8.33533e-10
2.99869e-09
4.71983e-09
5.25081e-09
4.5253e-09
3.13827e-09
1.97784e-09
4.73164e-10
2.07355e-08
2.43857e-08
2.69328e-08
2.74419e-08
2.69766e-08
2.63123e-08
2.60555e-08
2.69924e-08
2.9028e-08
2.72914e-08
3.16246e-08
3.14871e-08
2.77732e-08
2.56038e-08
3.02365e-08
2.55135e-08
2.14256e-08
2.60232e-08
2.59969e-08
1.827e-08
1.69056e-08
1.65664e-08
1.59086e-08
1.19377e-08
2.35475e-09
7.27518e-09
8.56726e-09
3.62296e-10
1.47968e-10
2.4276e-09
7.8113e-09
4.65468e-08
4.26792e-08
1.94683e-08
5.34652e-09
2.3393e-09
4.44849e-09
4.50273e-09
6.04987e-10
7.76561e-10
2.0134e-08
2.11858e-08
2.36722e-08
2.39961e-08
2.31922e-08
2.31897e-08
2.29734e-08
2.2493e-08
2.32388e-08
2.61343e-08
2.2864e-08
2.46076e-08
2.65889e-08
2.41014e-08
2.06792e-08
2.35677e-08
2.35081e-08
1.80832e-08
1.95315e-08
1.73784e-08
1.64857e-08
1.32233e-08
1.43113e-08
1.50798e-08
9.12268e-09
6.83742e-09
7.46981e-09
6.00433e-09
6.89592e-09
7.82955e-09
6.21846e-09
4.09376e-09
2.89527e-09
3.10952e-09
3.62698e-09
3.56295e-09
3.09464e-09
2.17422e-09
1.58021e-09
5.78932e-10
1.85849e-08
1.95564e-08
2.00562e-08
2.05973e-08
2.04303e-08
1.93857e-08
1.97573e-08
2.05583e-08
1.99724e-08
2.11751e-08
2.21243e-08
2.05448e-08
2.05533e-08
2.22067e-08
2.0902e-08
1.85066e-08
2.12815e-08
1.98662e-08
1.76684e-08
1.7107e-08
1.87144e-08
1.65729e-08
1.32531e-08
1.27539e-08
1.32033e-08
1.27995e-08
1.05883e-08
7.23511e-09
4.18528e-09
2.61903e-09
3.51647e-09
4.96398e-09
5.79089e-09
5.60257e-09
4.7672e-09
3.61825e-09
2.46965e-09
1.53506e-09
7.87569e-10
5.98426e-10
1.7195e-08
1.72279e-08
1.77495e-08
1.76958e-08
1.74125e-08
1.75944e-08
1.67695e-08
1.66907e-08
1.81059e-08
1.77251e-08
1.77881e-08
1.9304e-08
1.82162e-08
1.71403e-08
1.94599e-08
1.88539e-08
1.68127e-08
1.76702e-08
1.88695e-08
1.68249e-08
1.4522e-08
1.46219e-08
1.5257e-08
1.41032e-08
1.1204e-08
8.32599e-09
7.39095e-09
7.47192e-09
7.34682e-09
7.01245e-09
6.45252e-09
5.49915e-09
4.41649e-09
3.38422e-09
2.72194e-09
2.09296e-09
1.68543e-09
1.107e-09
8.21835e-10
3.79967e-10
1.58007e-08
1.57591e-08
1.55459e-08
1.53842e-08
1.51101e-08
1.46117e-08
1.47347e-08
1.47095e-08
1.44728e-08
1.55508e-08
1.58064e-08
1.51785e-08
1.63225e-08
1.66578e-08
1.54699e-08
1.6269e-08
1.75511e-08
1.66976e-08
1.57718e-08
1.62846e-08
1.63925e-08
1.49612e-08
1.32534e-08
1.24309e-08
1.20576e-08
1.10827e-08
9.49144e-09
7.64381e-09
5.99343e-09
4.99892e-09
4.81325e-09
4.83577e-09
4.71168e-09
4.26655e-09
3.59609e-09
2.81255e-09
2.11184e-09
1.49692e-09
1.15045e-09
8.82536e-10
1.44915e-08
1.41209e-08
1.37892e-08
1.33811e-08
1.29942e-08
1.27351e-08
1.23467e-08
1.23338e-08
1.2765e-08
1.28434e-08
1.32224e-08
1.37777e-08
1.35911e-08
1.38807e-08
1.46824e-08
1.45911e-08
1.44348e-08
1.51279e-08
1.54586e-08
1.46141e-08
1.36392e-08
1.31407e-08
1.2617e-08
1.15185e-08
9.86533e-09
8.06051e-09
6.90246e-09
6.32745e-09
6.04371e-09
5.67573e-09
5.23184e-09
4.48857e-09
3.68751e-09
2.79908e-09
2.09935e-09
1.45001e-09
1.05776e-09
7.15076e-10
5.6739e-10
3.47049e-10
1.34879e-08
1.29793e-08
1.23784e-08
1.18083e-08
1.13939e-08
1.1034e-08
1.08829e-08
1.08909e-08
1.10965e-08
1.16033e-08
1.18937e-08
1.20093e-08
1.22145e-08
1.19298e-08
1.1321e-08
1.10082e-08
1.04564e-08
9.16572e-09
7.91918e-09
7.04448e-09
6.19504e-09
4.93702e-09
3.74711e-09
2.90478e-09
2.54592e-09
2.33569e-09
2.21198e-09
1.9828e-09
1.72484e-09
1.38392e-09
1.19249e-09
1.01139e-09
9.3759e-10
7.9775e-10
7.33738e-10
5.79924e-10
5.62664e-10
4.25443e-10
4.74033e-10
3.8031e-10
1.22715e-08
1.17285e-08
1.10607e-08
1.03903e-08
9.89507e-09
9.58707e-09
9.35471e-09
9.3118e-09
9.30314e-09
9.08301e-09
8.49178e-09
7.2201e-09
5.26976e-09
3.24809e-09
1.55639e-09
4.17581e-10
3.46755e-11
1.09871e-13
6.40029e-12
4.45384e-11
1.31056e-10
1.84025e-10
1.28178e-10
7.04347e-11
3.29168e-11
1.2425e-11
3.42945e-12
5.76733e-13
2.65167e-14
2.83239e-12
1.5773e-11
2.65064e-11
3.07488e-11
2.31546e-11
1.76971e-11
1.17927e-11
8.37098e-12
5.71668e-12
3.62707e-12
1.88569e-12
2.34e-09
2.04216e-09
1.86858e-09
1.79931e-09
1.81748e-09
1.87828e-09
1.88464e-09
1.83885e-09
1.71921e-09
1.45429e-09
1.04468e-09
6.08443e-10
2.69649e-10
6.4092e-11
1.55598e-12
6.75091e-12
6.28355e-11
1.6354e-10
2.69304e-10
3.18556e-10
2.74102e-10
1.8381e-10
1.0965e-10
6.8022e-11
3.8103e-11
1.48204e-11
2.74785e-12
1.58669e-13
2.7182e-14
2.39345e-13
5.09609e-13
6.17346e-13
7.63426e-13
7.77068e-13
1.06508e-12
9.99207e-13
1.43529e-12
1.05288e-12
1.34826e-12
7.22429e-13
1.8388e-11
1.63772e-11
1.89417e-11
2.40032e-11
3.03487e-11
3.71465e-11
4.38793e-11
4.96983e-11
4.99436e-11
4.43966e-11
3.51057e-11
2.0348e-11
7.25327e-12
1.28182e-12
8.03207e-14
1.81928e-12
1.06642e-11
2.30225e-11
3.0706e-11
3.32354e-11
2.98646e-11
2.10493e-11
1.09396e-11
4.20049e-12
1.17559e-12
2.18419e-13
1.51224e-14
9.86781e-16
3.64603e-14
1.32511e-13
2.73097e-13
3.2763e-13
3.40077e-13
2.58707e-13
2.02575e-13
1.26797e-13
8.24982e-14
4.68479e-14
2.0296e-14
1.07805e-14
2.80586e-14
1.53858e-14
3.22729e-14
6.54874e-14
1.19038e-13
1.89189e-13
2.67783e-13
3.54715e-13
4.15572e-13
3.86205e-13
2.97597e-13
1.78958e-13
4.37604e-14
6.78341e-15
1.05161e-13
5.17073e-13
1.16816e-12
1.56749e-12
1.3136e-12
6.50788e-13
1.88627e-13
2.94909e-14
1.87112e-15
3.53912e-15
1.56265e-14
3.12465e-14
4.35055e-14
4.14732e-14
2.92004e-14
1.60242e-14
7.63404e-15
3.49864e-15
1.59831e-15
9.81741e-16
6.21116e-16
5.01824e-16
5.4957e-16
2.79082e-16
9.02809e-16
5.24491e-16
)
;

boundaryField
{
    inlet
    {
        type            calculated;
        value           nonuniform List<scalar> 
20
(
1.70635e-34
2.09794e-32
1.94774e-32
1.06777e-32
9.52475e-33
8.47712e-33
7.65323e-33
6.89033e-33
5.86132e-33
4.7989e-33
3.69322e-33
2.86761e-33
2.64082e-33
2.40299e-33
1.41901e-33
1.70895e-33
5.34573e-34
7.15606e-33
5.94178e-33
1.47178e-34
)
;
    }
    outlet
    {
        type            calculated;
        value           nonuniform List<scalar> 
27
(
1.02322e-34
3.07139e-35
2.54661e-33
5.80719e-33
4.00838e-36
7.24631e-33
5.33879e-33
5.957e-33
1.92224e-33
1.37328e-33
9.44386e-34
1.92044e-33
9.92699e-34
3.96815e-33
2.21387e-33
1.86051e-33
1.41339e-36
9.23002e-40
8.88162e-37
1.42105e-37
2.28574e-37
7.51602e-37
5.44998e-39
1.2399e-35
2.67136e-34
1.44741e-33
5.69431e-35
)
;
    }
    lowerWall
    {
        type            fixedValue;
        value           uniform 0;
    }
    upperWall
    {
        type            fixedValue;
        value           uniform 0;
    }
    defaultFaces
    {
        type            empty;
    }
}


// ************************************************************************* //
