/*--------------------------------*- C++ -*----------------------------------*\
| =========                 |                                                 |
| \\      /  F ield         | OpenFOAM: The Open Source CFD Toolbox           |
|  \\    /   O peration     | Version:  2112                                  |
|   \\  /    A nd           | Website:  www.openfoam.com                      |
|    \\/     M anipulation  |                                                 |
\*---------------------------------------------------------------------------*/
FoamFile
{
    version     2.0;
    format      ascii;
    arch        "LSB;label=32;scalar=64";
    class       volScalarField;
    location    "0.32";
    object      p;
}
// * * * * * * * * * * * * * * * * * * * * * * * * * * * * * * * * * * * * * //

dimensions      [0 2 -2 0 0 0 0];

internalField   nonuniform List<scalar> 
1880
(
0.00320526
0.00307366
0.00297996
0.00293198
0.00290318
0.00288317
0.00286345
0.00284426
0.00282865
0.00281624
0.00280518
0.00279995
0.00279448
0.00279442
0.00279823
0.00280588
0.00281886
0.00283575
0.00286155
0.00289376
0.00293841
0.00298246
0.00304601
0.00311596
0.00319844
0.00332018
0.00343896
0.0035795
0.00375192
0.00385952
0.0030247
0.00299723
0.00295396
0.00291745
0.00288895
0.00286772
0.00285029
0.00283249
0.00282076
0.00280724
0.00279644
0.00278913
0.00278448
0.00278259
0.00278502
0.00279236
0.00280077
0.00281888
0.00283538
0.00287613
0.00290099
0.00295549
0.00299752
0.00307096
0.00314608
0.00325277
0.00336666
0.00350828
0.00365011
0.00378596
0.00299151
0.00297397
0.00294324
0.00291107
0.00288344
0.00286077
0.00284256
0.00282538
0.00281382
0.00280059
0.00278751
0.00278013
0.00277414
0.0027693
0.00276846
0.00277351
0.00278233
0.00279204
0.00280655
0.00283339
0.00285933
0.00289819
0.00293742
0.00299601
0.00305203
0.00313396
0.00321027
0.00328994
0.00337935
0.00341959
0.0029335
0.002925
0.00290877
0.00288638
0.00286532
0.00284507
0.00282795
0.00281053
0.00279975
0.00278655
0.00277279
0.00276506
0.00275692
0.00275185
0.00274488
0.00275011
0.00275186
0.00275841
0.00276621
0.00278465
0.00280463
0.00282793
0.00286005
0.00289046
0.00293651
0.00298221
0.00302388
0.00307144
0.00310541
0.00309951
0.00290481
0.00289907
0.00288896
0.00287115
0.00285393
0.00283475
0.00281786
0.0028
0.00278836
0.00277457
0.00275956
0.00275014
0.00274072
0.0027324
0.00272236
0.00272267
0.00272105
0.00272228
0.00272294
0.0027329
0.00274364
0.00275612
0.0027726
0.00278949
0.00281271
0.00283107
0.00284612
0.00285388
0.00284301
0.00280699
0.00287742
0.00287265
0.00286525
0.00285076
0.00283644
0.00281964
0.00280348
0.00278593
0.00277337
0.00275938
0.00274263
0.0027319
0.00272099
0.00270955
0.0026968
0.00269107
0.00268764
0.00268058
0.00267637
0.00267609
0.00267907
0.00267986
0.00268219
0.0026824
0.00268597
0.00268154
0.00267019
0.00264532
0.0026071
0.0025379
0.00285678
0.00285263
0.00284704
0.00283461
0.00282227
0.00280692
0.00279121
0.00277347
0.00275981
0.00274494
0.00272635
0.00271383
0.00270066
0.0026866
0.00267004
0.00266001
0.00265188
0.0026388
0.00262791
0.00261893
0.00261305
0.00260304
0.00259119
0.00257729
0.00256216
0.00253807
0.00250421
0.00245597
0.00239023
0.00230032
0.00283992
0.00283625
0.00283126
0.00281997
0.00280829
0.00279398
0.0027781
0.00276024
0.00274538
0.00272947
0.00270918
0.00269409
0.00267957
0.00266135
0.0026425
0.00262679
0.00261473
0.00259565
0.00257763
0.0025615
0.00254588
0.00252537
0.00250225
0.00247384
0.00244377
0.00240238
0.00235018
0.00228192
0.0021969
0.0020892
0.00282674
0.00282324
0.00281844
0.00280767
0.00279619
0.00278232
0.00276598
0.00274774
0.00273149
0.0027145
0.00269211
0.00267491
0.00265809
0.00263655
0.00261438
0.00259393
0.00257758
0.00255259
0.002528
0.0025047
0.00248001
0.00245064
0.00241596
0.00237557
0.00233208
0.00227605
0.00220844
0.00212513
0.00202413
0.00190334
0.0028169
0.00281355
0.00280853
0.00279786
0.00278601
0.00277206
0.00275495
0.00273586
0.00271836
0.00269966
0.00267563
0.00265566
0.00263689
0.00261175
0.00258627
0.00256178
0.00254029
0.0025106
0.00247904
0.00244914
0.00241681
0.00237813
0.00233423
0.00228296
0.00222778
0.00216014
0.00207971
0.00198408
0.00187175
0.00174073
0.00281048
0.00280711
0.0028016
0.00279062
0.00277797
0.00276348
0.00274515
0.00272498
0.00270595
0.00268561
0.00265962
0.00263719
0.0026161
0.00258772
0.00255876
0.00253033
0.00250415
0.00246989
0.00243186
0.00239597
0.0023564
0.00230982
0.00225752
0.00219681
0.00213196
0.00205475
0.00196367
0.00185885
0.0017379
0.00159911
0.00280756
0.00280404
0.00279782
0.00278614
0.00277235
0.00275684
0.00273712
0.00271545
0.00269499
0.00267268
0.00264491
0.0026199
0.00259642
0.00256503
0.00253233
0.00250062
0.00246977
0.00243125
0.00238751
0.00234563
0.0023002
0.00224629
0.00218647
0.00211819
0.00204466
0.00195973
0.00186069
0.00174846
0.00162135
0.00147716
0.00280848
0.00280452
0.00279719
0.00278426
0.00276875
0.00275157
0.00272997
0.00270663
0.00268456
0.00266042
0.00263084
0.00260348
0.00257758
0.00254332
0.0025071
0.0024723
0.00243728
0.00239469
0.00234576
0.00229862
0.00224794
0.00218779
0.00212147
0.00204679
0.00196609
0.001875
0.00176961
0.00165169
0.00152017
0.00137221
0.002814
0.00280955
0.00280095
0.00278653
0.00276905
0.00274992
0.00272627
0.00270107
0.0026773
0.00265096
0.00261941
0.0025897
0.00256105
0.00252398
0.00248429
0.00244667
0.00240785
0.00236111
0.00230778
0.00225574
0.00220047
0.00213505
0.00206279
0.00198293
0.0018964
0.00180024
0.0016903
0.0015681
0.00143365
0.00128383
0.00282399
0.00281807
0.00280698
0.00278963
0.00276903
0.00274702
0.00272104
0.00269394
0.00266855
0.00264042
0.00260719
0.00257558
0.00254447
0.00250497
0.0024626
0.00242268
0.00238052
0.00232988
0.00227279
0.00221671
0.00215745
0.00208761
0.00201032
0.00192615
0.00183492
0.00173462
0.00162129
0.00149606
0.00135964
0.00120863
0.00284313
0.0028357
0.0028215
0.0028003
0.00277566
0.00275026
0.00272179
0.00269286
0.00266577
0.00263568
0.00260073
0.00256687
0.00253284
0.00249071
0.00244565
0.00240312
0.00235747
0.00230293
0.00224263
0.00218297
0.00211985
0.00204609
0.00196443
0.00187665
0.00178179
0.00167813
0.00156256
0.00143554
0.00129817
0.00114777
0.00286382
0.00285211
0.00283202
0.00280529
0.00277647
0.00274828
0.00271821
0.00268808
0.00265954
0.00262764
0.00259102
0.00255508
0.00251835
0.00247429
0.00242777
0.00238332
0.00233457
0.00227691
0.0022147
0.00215261
0.00208616
0.00200912
0.00192394
0.00183298
0.0017351
0.0016287
0.00151171
0.00138418
0.00124665
0.00109619
0.00291722
0.00289505
0.00286095
0.00282299
0.00278717
0.00275524
0.00272345
0.00269191
0.00266118
0.00262685
0.00258843
0.00255042
0.00251115
0.00246562
0.00241811
0.00237145
0.00231959
0.00225924
0.00219504
0.00212973
0.0020592
0.00197912
0.00189124
0.00179764
0.00169733
0.00158878
0.00147103
0.00134389
0.00120742
0.00105947
0.00294612
0.00291175
0.00286698
0.00282405
0.00278637
0.00275431
0.00272218
0.00268945
0.00265696
0.00262102
0.00258171
0.00254197
0.00250022
0.00245405
0.00240625
0.00235685
0.00230087
0.00223805
0.00217339
0.00210672
0.00203372
0.00195179
0.00186132
0.00176416
0.00166047
0.00155001
0.0014328
0.00130798
0.00117381
0.00102836
0.00312578
0.00298617
0.00288909
0.00283468
0.0027989
0.0027663
0.00273156
0.0026956
0.00265973
0.00262197
0.00258266
0.00254244
0.00249923
0.00245261
0.00240412
0.00235289
0.00229591
0.00223327
0.00216736
0.00209788
0.00202269
0.00194034
0.00184982
0.0017521
0.00164737
0.00153591
0.00141824
0.00129409
0.00116158
0.00101955
0.00399956
0.00377493
0.00352161
0.00298445
0.00237704
0.00178929
0.000756813
6.94124e-05
-0.00133236
-0.00257188
0.00385668
0.00349385
0.00307428
0.0025475
0.00191516
0.00128303
0.000337706
-0.000502692
-0.001665
-0.00297725
0.00344673
0.00312228
0.00273082
0.00230034
0.00164518
0.00110733
0.000188575
-0.000518497
-0.00161383
-0.00256171
0.00310424
0.00279729
0.00238588
0.0019083
0.00134716
0.000746142
6.4626e-06
-0.000784369
-0.00167657
-0.00262692
0.00275184
0.00246626
0.00205865
0.00165878
0.0011172
0.000582089
-0.000114509
-0.000850178
-0.00161778
-0.00241781
0.00245825
0.00218198
0.00181146
0.00138664
0.000912069
0.000362896
-0.00023529
-0.000922783
-0.00160857
-0.00232968
0.00219406
0.00193397
0.00157046
0.00118211
0.000737909
0.000236417
-0.000318835
-0.000944156
-0.0015543
-0.00217753
0.00196672
0.00171335
0.00137944
0.000997274
0.000590601
0.00011493
-0.000392451
-0.000955846
-0.0015124
-0.00206595
0.0017666
0.00152577
0.00120719
0.000848995
0.000467987
3.08582e-05
-0.000441958
-0.000953516
-0.00145343
-0.00194151
0.00159505
0.00136301
0.0010654
0.000724031
0.000366801
-3.81805e-05
-0.000477267
-0.000940966
-0.00139293
-0.00183536
0.00144594
0.00122414
0.000942197
0.000621777
0.000284733
-9.04635e-05
-0.000497514
-0.000920489
-0.00133159
-0.00173115
0.00131989
0.00110678
0.000841305
0.000538887
0.000219966
-0.000129047
-0.000505665
-0.000893528
-0.00126999
-0.00163727
0.001211
0.00100596
0.000754725
0.00047033
0.000168602
-0.000158018
-0.000506979
-0.000864069
-0.00121161
-0.00155014
0.0011217
0.000924116
0.000686302
0.000417662
0.000131484
-0.000175597
-0.000500263
-0.00083141
-0.00115517
-0.00147109
0.00104439
0.000852482
0.000626818
0.000373242
0.000102011
-0.000187616
-0.000491132
-0.000800119
-0.0011038
-0.00140034
0.00098516
0.000799149
0.000583974
0.000343015
8.47963e-05
-0.000189953
-0.000476447
-0.000767979
-0.0010558
-0.0013373
0.000932764
0.000750583
0.000545104
0.000316593
7.11716e-05
-0.000189725
-0.000461502
-0.000738582
-0.00101334
-0.00128259
0.000899172
0.000721463
0.000523285
0.000303913
6.8061e-05
-0.000182454
-0.000443501
-0.000710407
-0.00097604
-0.00123648
0.000870035
0.000696138
0.000505136
0.000295458
6.91483e-05
-0.000172073
-0.000423758
-0.000682457
-0.00094175
-0.00119621
0.000865174
0.000693516
0.000504524
0.000297698
7.47189e-05
-0.000162888
-0.000410762
-0.000666339
-0.000923219
-0.00117804
-0.00562367
-0.00585693
-0.00594366
-0.00601483
-0.00693567
-0.00915856
-0.0119332
-0.0134658
-0.0136608
-0.0125583
-0.0106344
-0.00811829
-0.00536558
-0.00263299
-0.000250334
0.00142037
0.00240531
0.00280444
0.00284472
0.0026888
0.00243788
0.00215662
0.00188002
0.00162398
0.00139336
0.00118751
0.00100279
0.000839777
0.000697237
0.00057468
0.000470717
0.000383471
0.000310247
0.000248716
0.000196271
0.000151032
0.00011123
7.56289e-05
4.34544e-05
1.36111e-05
-0.00575507
-0.0060162
-0.00601111
-0.00619552
-0.00762472
-0.0102356
-0.0129873
-0.0143788
-0.0143841
-0.0131567
-0.0111157
-0.00858494
-0.00579155
-0.00302643
-0.000547627
0.00121079
0.00223448
0.00267004
0.00273306
0.0025984
0.00236698
0.00210166
0.00183715
0.00158958
0.00136507
0.0011629
0.000982063
0.000823101
0.000684279
0.000565209
0.000464332
0.000379583
0.000308358
0.000248221
0.000196782
0.000152032
0.000112501
7.68136e-05
4.4365e-05
1.41613e-05
-0.00553983
-0.00581723
-0.00612605
-0.00688907
-0.00876002
-0.0115986
-0.0144123
-0.0157085
-0.0155477
-0.0141142
-0.0119056
-0.0093396
-0.00654722
-0.00374744
-0.00112479
0.000770564
0.00188591
0.00237228
0.00247597
0.00238271
0.00218959
0.00195636
0.00171942
0.00149596
0.0012921
0.00110797
0.00094392
0.000798237
0.000670019
0.000559536
0.000464567
0.000383171
0.00031346
0.000253566
0.000201654
0.000156172
0.000115827
7.9396e-05
4.60912e-05
1.49709e-05
-0.00529386
-0.00540922
-0.00550065
-0.00694655
-0.00959147
-0.0128641
-0.0157619
-0.017062
-0.0167641
-0.0151115
-0.0127091
-0.0101213
-0.00738415
-0.00458009
-0.00183483
0.000184034
0.00141199
0.00196618
0.00212182
0.00208675
0.00195288
0.00176846
0.00156928
0.00137705
0.00119912
0.00103667
0.000890634
0.00076174
0.000644365
0.000542122
0.000453075
0.000375624
0.000308655
0.000250692
0.000200188
0.000155672
0.000115978
7.98853e-05
4.66037e-05
1.53328e-05
-0.00514277
-0.00566308
-0.00566776
-0.0073714
-0.00998668
-0.0132828
-0.0162979
-0.0177627
-0.0175281
-0.0158493
-0.0132971
-0.0107107
-0.00808051
-0.0053333
-0.00256128
-0.000453593
0.000864194
0.0014984
0.00171432
0.00173692
0.00166705
0.00154416
0.00139529
0.00124094
0.00109089
0.000950777
0.000823385
0.000708069
0.000608466
0.00051794
0.000437004
0.000365194
0.000302
0.000246498
0.000197622
0.000154205
0.000115105
7.94905e-05
4.64745e-05
1.52816e-05
-0.00480986
-0.0055386
-0.00494605
-0.00694091
-0.00982679
-0.0131922
-0.0163773
-0.0179371
-0.0177746
-0.0160553
-0.013436
-0.010847
-0.00832859
-0.0057174
-0.00308472
-0.0010207
0.000299218
0.00098977
0.00128729
0.00138664
0.00138191
0.00131423
0.00121421
0.00110147
0.000984381
0.000867637
0.000758208
0.000659718
0.000571667
0.000490911
0.000416525
0.000349742
0.000290255
0.00023757
0.00019101
0.000149473
0.000111975
7.75705e-05
4.55371e-05
1.50901e-05
-0.00464477
-0.00557596
-0.00476455
-0.00678892
-0.00933347
-0.0124423
-0.0153057
-0.0168434
-0.0168627
-0.0154051
-0.0130204
-0.0105579
-0.00818637
-0.00576908
-0.00335039
-0.00141777
-0.000183853
0.000496558
0.000854568
0.00103218
0.00110234
0.00109628
0.00104171
0.000964083
0.000875631
0.000781523
0.000688498
0.000602892
0.000526032
0.000455847
0.000390796
0.000330725
0.00027607
0.00022703
0.000183048
0.00014346
0.00010755
7.46008e-05
4.37358e-05
1.43891e-05
-0.00495885
-0.00388472
-0.0045214
-0.00626882
-0.00868946
-0.0113178
-0.0137696
-0.0152021
-0.0153943
-0.014323
-0.0123072
-0.0100713
-0.00786571
-0.00563206
-0.00344986
-0.0016907
-0.000536876
0.000123692
0.000505547
0.000721471
0.00083532
0.000877226
0.000869552
0.00082761
0.000763788
0.000689466
0.000614192
0.000543019
0.00047636
0.000413351
0.000355411
0.000302957
0.000254972
0.000210802
0.000170558
0.000134289
0.00010123
7.05606e-05
4.16224e-05
1.38332e-05
-0.00390795
-0.00467667
-0.00539949
-0.00645624
-0.00826202
-0.0105067
-0.0125688
-0.0137231
-0.013862
-0.0130123
-0.0112953
-0.00929301
-0.00729447
-0.00529712
-0.00341829
-0.00191159
-0.000872221
-0.000211962
0.00021398
0.000477702
0.000615404
0.000677048
0.000695834
0.000683417
0.000644013
0.000588343
0.000528911
0.000471436
0.000417805
0.000368272
0.000321272
0.000275761
0.000232889
0.000193678
0.000157846
0.0001246
9.38821e-05
6.52818e-05
3.8345e-05
1.26661e-05
-0.00347567
-0.00429618
-0.00502361
-0.00607471
-0.00763132
-0.00942517
-0.0110074
-0.0118859
-0.0120218
-0.0113776
-0.00996355
-0.00823916
-0.00649764
-0.00483009
-0.00331263
-0.00206675
-0.00116777
-0.000546119
-0.000109434
0.000190382
0.000375986
0.000475417
0.000520303
0.00053114
0.000515262
0.00048059
0.000438202
0.000395498
0.000352096
0.000307739
0.000266216
0.000230579
0.00019915
0.000168801
0.00013905
0.000110959
8.45643e-05
5.95156e-05
3.54196e-05
1.1764e-05
-0.00327789
-0.00402108
-0.00487439
-0.00580744
-0.00696194
-0.0082756
-0.00939171
-0.0100212
-0.0101249
-0.0096323
-0.00852794
-0.00716508
-0.0057731
-0.00442921
-0.00321323
-0.00217917
-0.00137478
-0.000785333
-0.000358218
-6.36287e-05
0.000129502
0.00025676
0.000334648
0.000372009
0.000378812
0.000366089
0.000346637
0.00032233
0.000291698
0.000259417
0.000229647
0.000201258
0.000172967
0.000146095
0.000121226
9.76607e-05
7.47075e-05
5.22717e-05
3.08024e-05
1.01431e-05
-0.00302194
-0.00372068
-0.00452863
-0.00531377
-0.00618717
-0.00715541
-0.00798222
-0.00846011
-0.00853838
-0.00817773
-0.0073505
-0.00629671
-0.00520324
-0.00412228
-0.00310546
-0.00221635
-0.00150763
-0.000977294
-0.000575618
-0.000277525
-6.91393e-05
7.41065e-05
0.000168911
0.000224319
0.000249117
0.00025474
0.00025106
0.000241738
0.000225855
0.00020319
0.000177726
0.000154592
0.00013527
0.000117514
9.97367e-05
8.19519e-05
6.36638e-05
4.54599e-05
2.75332e-05
9.29494e-06
-0.00285118
-0.00345614
-0.00416056
-0.00485183
-0.00556336
-0.00631184
-0.00693342
-0.00728347
-0.00732532
-0.00705276
-0.00643411
-0.005601
-0.00471049
-0.00383076
-0.00299901
-0.00224645
-0.00161225
-0.0011186
-0.000739408
-0.000446575
-0.000228266
-7.3826e-05
3.20846e-05
0.000103642
0.00014891
0.000170729
0.000176408
0.000175728
0.000169044
0.000156779
0.000144767
0.000135305
0.000124317
0.000109153
9.0562e-05
7.18773e-05
5.43096e-05
3.79419e-05
2.19306e-05
7.4077e-06
-0.00267415
-0.00319946
-0.00380615
-0.00441882
-0.00501485
-0.00559763
-0.00606649
-0.00633189
-0.00635799
-0.00614672
-0.00568291
-0.00503114
-0.00430557
-0.00357828
-0.00288723
-0.00225143
-0.00169273
-0.00123845
-0.000882564
-0.000605914
-0.000393235
-0.000231284
-0.000112976
-3.03103e-05
2.78029e-05
6.71819e-05
9.04785e-05
0.000100769
0.000102829
0.000100696
9.42238e-05
8.46675e-05
7.47321e-05
6.71481e-05
6.1354e-05
5.49292e-05
4.56792e-05
3.48004e-05
2.19245e-05
7.35763e-06
-0.00251217
-0.00297345
-0.00349359
-0.00402974
-0.00454052
-0.00501316
-0.00538525
-0.00559188
-0.00561473
-0.00544135
-0.00507503
-0.00456256
-0.00397346
-0.00336774
-0.00278197
-0.00223644
-0.00174899
-0.00133983
-0.00100857
-0.000742187
-0.000531595
-0.000365774
-0.000236909
-0.000140912
-7.18451e-05
-2.24864e-05
1.13128e-05
3.56462e-05
5.37783e-05
6.18439e-05
5.99226e-05
5.55767e-05
5.19006e-05
4.84535e-05
4.39747e-05
3.71647e-05
2.97686e-05
2.1117e-05
1.24331e-05
4.23205e-06
-0.00235649
-0.00276813
-0.00321811
-0.00368616
-0.00412634
-0.00451666
-0.00481293
-0.00497807
-0.00499958
-0.00486259
-0.00457141
-0.00416514
-0.00368798
-0.00318259
-0.00268366
-0.00221247
-0.00178484
-0.00141548
-0.00110797
-0.000852901
-0.000643339
-0.000476176
-0.000345288
-0.000242895
-0.000162968
-0.000103345
-6.11325e-05
-3.15576e-05
-9.49446e-06
6.0973e-06
1.67001e-05
2.58351e-05
3.37987e-05
3.74906e-05
3.73104e-05
3.43806e-05
2.9657e-05
2.32174e-05
1.60552e-05
5.18756e-06
-0.00221303
-0.00258392
-0.00297885
-0.00338787
-0.00376999
-0.00410061
-0.00434745
-0.00448473
-0.00450404
-0.00439479
-0.00416055
-0.00383276
-0.00344283
-0.00302
-0.00259586
-0.00219111
-0.00181565
-0.0014803
-0.00119428
-0.000955498
-0.00075536
-0.000588368
-0.000452395
-0.000345048
-0.000259249
-0.000188693
-0.000133223
-8.89767e-05
-5.61007e-05
-3.36339e-05
-1.75483e-05
-7.08188e-06
-1.26503e-07
4.41344e-06
6.88776e-06
7.53708e-06
6.67304e-06
4.6783e-06
1.78407e-06
7.80324e-07
-0.00208041
-0.00241846
-0.00276942
-0.0031275
-0.00346199
-0.0037462
-0.00395385
-0.00407075
-0.00409201
-0.00400851
-0.00382016
-0.0035512
-0.00322976
-0.00287771
-0.00251684
-0.002165
-0.00183321
-0.00153139
-0.00126708
-0.00103968
-0.000845364
-0.000680659
-0.000541335
-0.000424408
-0.000329117
-0.000254485
-0.000194801
-0.00014766
-0.000108587
-7.65095e-05
-5.00579e-05
-2.88945e-05
-1.27245e-05
-1.29237e-06
6.03747e-06
9.97015e-06
1.11596e-05
1.01444e-05
7.03775e-06
2.59014e-06
-0.00196075
-0.0022709
-0.002586
-0.00290345
-0.00319843
-0.00344659
-0.00362854
-0.00373132
-0.00375204
-0.003687
-0.00353653
-0.00331695
-0.0030501
-0.00275417
-0.00244538
-0.00213933
-0.00184764
-0.00157724
-0.00133367
-0.00111883
-0.000930887
-0.00076811
-0.000629155
-0.000512043
-0.000412855
-0.000327553
-0.000256492
-0.000198184
-0.000151
-0.00011304
-8.38961e-05
-6.17492e-05
-4.47574e-05
-3.17887e-05
-2.21858e-05
-1.52704e-05
-1.03656e-05
-6.90093e-06
-4.0194e-06
-1.44342e-06
-0.00185269
-0.00214
-0.00242674
-0.00271023
-0.00297232
-0.00319209
-0.00335225
-0.00344556
-0.00346895
-0.00341801
-0.00329668
-0.00311821
-0.00289613
-0.00264542
-0.00238253
-0.00211864
-0.00186054
-0.00161605
-0.00139127
-0.00118843
-0.00100766
-0.000847764
-0.000705791
-0.000580388
-0.000472828
-0.000383184
-0.000308258
-0.000245205
-0.000191974
-0.000146993
-0.000109242
-7.8446e-05
-5.39951e-05
-3.53089e-05
-2.14172e-05
-1.15612e-05
-5.04157e-06
-1.16155e-06
4.59499e-07
3.11749e-07
-0.00175657
-0.00202516
-0.00228852
-0.0025449
-0.00278011
-0.00297669
-0.00312169
-0.00320735
-0.00323158
-0.00319407
-0.00309676
-0.00294885
-0.00276419
-0.0025546
-0.00233007
-0.00209987
-0.00187231
-0.0016538
-0.00144796
-0.00125603
-0.00107964
-0.000920511
-0.000778395
-0.00065224
-0.000541086
-0.000443655
-0.00035925
-0.00028746
-0.000226952
-0.000177145
-0.00013727
-0.000105428
-7.99667e-05
-5.98482e-05
-4.40547e-05
-3.16776e-05
-2.20266e-05
-1.44294e-05
-8.27501e-06
-2.76172e-06
-0.00167166
-0.0019253
-0.00217012
-0.00240441
-0.00261776
-0.0027956
-0.00292675
-0.00300678
-0.00303339
-0.00300517
-0.00292663
-0.00280649
-0.00265317
-0.00247592
-0.0022846
-0.00208701
-0.00188799
-0.00169166
-0.0015013
-0.00131936
-0.00114863
-0.000991357
-0.000846689
-0.000713864
-0.000594419
-0.000490422
-0.00040123
-0.000324414
-0.000258661
-0.000202801
-0.000155662
-0.000116866
-8.54735e-05
-6.19288e-05
-4.31124e-05
-2.87744e-05
-1.81071e-05
-1.04103e-05
-4.96627e-06
-1.37965e-06
-0.00159772
-0.00183957
-0.00206948
-0.00228632
-0.00248192
-0.00264432
-0.00276487
-0.0028398
-0.00286695
-0.00284698
-0.00278434
-0.00268541
-0.00255799
-0.00241057
-0.00224982
-0.00208011
-0.00190555
-0.00173034
-0.00155687
-0.00138555
-0.00121812
-0.00105861
-0.000909802
-0.000772889
-0.000648891
-0.000538708
-0.000441342
-0.000356792
-0.000284657
-0.000224577
-0.000175466
-0.000135612
-0.000103622
-7.68759e-05
-5.63378e-05
-4.03791e-05
-2.79621e-05
-1.81819e-05
-1.02757e-05
-3.48538e-06
-0.00153461
-0.00176781
-0.00198635
-0.00218883
-0.00236894
-0.00251826
-0.00262962
-0.00269992
-0.0027277
-0.00271382
-0.00266301
-0.00258215
-0.00247842
-0.00235735
-0.00222271
-0.00207889
-0.0019291
-0.00177396
-0.00161359
-0.00144985
-0.00128624
-0.00112662
-0.000973526
-0.000828811
-0.000695783
-0.000576816
-0.000472835
-0.0003827
-0.000305683
-0.00024084
-0.000186918
-0.000142666
-0.00010685
-7.81276e-05
-5.55166e-05
-3.7967e-05
-2.45498e-05
-1.44861e-05
-7.13027e-06
-1.95495e-06
-0.00148223
-0.00171003
-0.0019212
-0.00211346
-0.00228096
-0.00241823
-0.00252112
-0.00258662
-0.0026134
-0.00260354
-0.00256238
-0.00249626
-0.00241169
-0.002314
-0.0022056
-0.00208748
-0.0019593
-0.00182028
-0.00167082
-0.00151303
-0.00135009
-0.0011862
-0.00102642
-0.000875415
-0.000736185
-0.000610239
-0.000498865
-0.000402483
-0.000320404
-0.000251676
-0.000195121
-0.000149318
-0.000112605
-8.33286e-05
-6.03269e-05
-4.23638e-05
-2.85535e-05
-1.78431e-05
-9.62128e-06
-3.02484e-06
-0.00143824
-0.00166255
-0.00186895
-0.00205361
-0.00221265
-0.00234184
-0.00243787
-0.00249821
-0.00252306
-0.00251561
-0.00248103
-0.0024265
-0.00235846
-0.00228083
-0.00219595
-0.00210304
-0.00199728
-0.00187395
-0.00173219
-0.00157521
-0.00140812
-0.00123711
-0.00106877
-0.000909203
-0.000761865
-0.000629189
-0.000512313
-0.000411633
-0.000326347
-0.0002553
-0.000196887
-0.000149539
-0.00011146
-8.1145e-05
-5.72513e-05
-3.86728e-05
-2.44988e-05
-1.38833e-05
-6.38203e-06
-1.33037e-06
-0.00142255
-0.00164642
-0.00184812
-0.00202729
-0.00218118
-0.00230594
-0.00239809
-0.00245561
-0.00247925
-0.00247234
-0.00244022
-0.00239015
-0.00232866
-0.00225917
-0.00218304
-0.002099
-0.00200157
-0.00188508
-0.00174804
-0.00159375
-0.00142745
-0.0012555
-0.00108507
-0.000922555
-0.000772477
-0.000637495
-0.00051865
-0.000416213
-0.000329372
-0.000257054
-0.000197647
-0.000149715
-0.000111365
-8.11221e-05
-5.74039e-05
-3.90835e-05
-2.51381e-05
-1.46362e-05
-7.13366e-06
-1.70407e-06
)
;

boundaryField
{
    inlet
    {
        type            zeroGradient;
    }
    outlet
    {
        type            fixedValue;
        value           uniform 0;
    }
    lowerWall
    {
        type            zeroGradient;
    }
    upperWall
    {
        type            zeroGradient;
    }
    defaultFaces
    {
        type            empty;
    }
}


// ************************************************************************* //
