/*--------------------------------*- C++ -*----------------------------------*\
| =========                 |                                                 |
| \\      /  F ield         | OpenFOAM: The Open Source CFD Toolbox           |
|  \\    /   O peration     | Version:  2112                                  |
|   \\  /    A nd           | Website:  www.openfoam.com                      |
|    \\/     M anipulation  |                                                 |
\*---------------------------------------------------------------------------*/
FoamFile
{
    version     2.0;
    format      ascii;
    arch        "LSB;label=32;scalar=64";
    class       volScalarField;
    location    "0.07";
    object      nut;
}
// * * * * * * * * * * * * * * * * * * * * * * * * * * * * * * * * * * * * * //

dimensions      [0 2 -1 0 0 0 0];

internalField   nonuniform List<scalar> 
1880
(
3.7074e-11
1.19995e-11
1.40316e-12
6.22827e-12
1.72991e-13
1.93428e-12
8.59024e-13
1.0354e-12
3.00415e-13
5.89326e-14
7.32338e-15
6.31079e-16
6.2012e-17
1.18616e-17
1.10938e-16
4.07635e-16
8.5141e-16
2.40071e-15
3.0534e-15
1.49335e-14
8.40107e-15
1.26462e-13
5.48228e-14
1.47424e-12
2.2784e-12
2.13932e-11
4.21832e-11
3.62331e-10
1.05649e-09
1.34081e-08
8.10246e-09
1.52734e-08
1.04837e-08
3.2724e-09
3.33513e-11
1.42351e-09
6.05978e-10
4.82965e-10
1.88672e-10
4.96344e-11
6.64659e-12
2.47897e-13
5.22927e-15
2.17247e-13
1.14538e-12
3.37582e-12
7.0882e-12
1.75792e-11
2.74422e-11
9.15478e-11
8.99999e-11
5.52448e-10
3.06898e-10
2.96349e-09
1.89333e-09
1.00418e-08
1.41477e-08
2.66049e-08
4.7726e-08
7.59181e-08
1.13591e-08
6.03647e-09
1.10204e-08
3.83037e-09
6.93814e-09
1.2522e-08
2.08185e-09
8.64391e-09
2.55405e-09
2.37833e-10
3.70034e-10
8.28103e-10
1.15395e-09
1.43468e-09
1.83721e-09
2.33893e-09
2.89232e-09
3.61551e-09
4.33413e-09
5.52856e-09
6.33042e-09
8.64328e-09
9.03185e-09
1.39214e-08
1.28579e-08
2.21501e-08
2.17965e-08
3.45212e-08
4.70485e-08
4.64035e-08
6.63098e-09
9.82077e-09
1.52217e-08
1.06711e-09
6.77913e-09
1.49466e-08
3.7702e-09
5.80504e-09
2.36841e-09
2.55807e-09
1.79567e-09
1.42898e-09
1.64455e-09
1.85168e-09
2.17213e-09
2.59332e-09
3.05514e-09
3.7016e-09
4.29567e-09
5.42178e-09
6.09825e-09
8.22282e-09
8.81852e-09
1.25196e-08
1.27109e-08
1.85831e-08
1.96297e-08
2.79756e-08
3.25888e-08
4.12007e-08
8.45459e-09
7.92637e-09
1.31498e-08
2.52454e-09
5.68244e-09
1.24855e-08
1.80136e-09
7.35041e-09
3.6559e-09
1.61739e-09
1.15302e-09
1.07369e-09
1.37489e-09
1.62016e-09
1.98164e-09
2.42877e-09
2.9067e-09
3.5457e-09
4.15197e-09
5.19861e-09
5.93675e-09
7.76663e-09
8.53848e-09
1.14465e-08
1.20479e-08
1.692e-08
2.02488e-08
2.71512e-08
3.87536e-08
3.22692e-08
8.1416e-09
1.01169e-08
1.52184e-08
8.78133e-09
4.49819e-09
1.48567e-08
3.37982e-09
5.09932e-09
2.72246e-09
2.24697e-09
1.57266e-09
7.53359e-10
1.13589e-09
1.44719e-09
1.84298e-09
2.30308e-09
2.79289e-09
3.41513e-09
4.03965e-09
4.99457e-09
5.83993e-09
7.35087e-09
8.46662e-09
1.04786e-08
1.1689e-08
1.48009e-08
1.78296e-08
2.16656e-08
2.59222e-08
2.91491e-08
8.39596e-09
9.8151e-09
1.45512e-08
9.83575e-09
4.28838e-09
1.39685e-08
2.65433e-09
9.71901e-10
1.28201e-09
2.11545e-09
1.48006e-09
6.5614e-10
1.05032e-09
1.37048e-09
1.77208e-09
2.22444e-09
2.71415e-09
3.30274e-09
3.94307e-09
4.78167e-09
5.71049e-09
6.90531e-09
8.23619e-09
9.59272e-09
1.11786e-08
1.32704e-08
1.71224e-08
2.00875e-08
2.67796e-08
2.24026e-08
8.43605e-09
1.01898e-08
1.4959e-08
1.16187e-08
4.18435e-09
1.46148e-08
3.14176e-09
9.14054e-10
2.4567e-09
2.12406e-09
1.46095e-09
7.36034e-10
1.07325e-09
1.38317e-09
1.76666e-09
2.19325e-09
2.6706e-09
3.21527e-09
3.85947e-09
4.58431e-09
5.57097e-09
6.48839e-09
7.97361e-09
8.83676e-09
1.06479e-08
1.20181e-08
1.52084e-08
1.74312e-08
2.01563e-08
2.26788e-08
8.43809e-09
1.02902e-08
1.49598e-08
1.20694e-08
4.59704e-09
1.4652e-08
3.20171e-09
3.2816e-09
3.06137e-09
2.06271e-09
1.49685e-09
9.32954e-10
1.19078e-09
1.46502e-09
1.81491e-09
2.20273e-09
2.65497e-09
3.15307e-09
3.78813e-09
4.41113e-09
5.4122e-09
6.11846e-09
7.66237e-09
8.20251e-09
1.01054e-08
1.1005e-08
1.40026e-08
1.59033e-08
1.87558e-08
1.9032e-08
8.39257e-09
1.03881e-08
1.50346e-08
1.21464e-08
4.94057e-09
1.47691e-08
3.33973e-09
5.32583e-09
2.97206e-09
2.13382e-09
1.64073e-09
1.14793e-09
1.34337e-09
1.58248e-09
1.89088e-09
2.2372e-09
2.65957e-09
3.11336e-09
3.72399e-09
4.26709e-09
5.24134e-09
5.80757e-09
7.32134e-09
7.69643e-09
9.54863e-09
1.02075e-08
1.26428e-08
1.43555e-08
1.59156e-08
1.81614e-08
8.306e-09
1.04776e-08
1.51066e-08
1.18239e-08
5.27675e-09
1.48914e-08
3.51416e-09
6.53155e-09
2.88276e-09
2.25101e-09
1.81511e-09
1.35135e-09
1.50006e-09
1.70464e-09
1.9752e-09
2.28415e-09
2.67365e-09
3.08679e-09
3.66216e-09
4.1483e-09
5.06881e-09
5.54674e-09
6.9713e-09
7.27954e-09
9.01195e-09
9.5599e-09
1.15869e-08
1.31565e-08
1.43778e-08
1.6275e-08
8.18772e-09
1.05192e-08
1.5115e-08
1.10246e-08
5.78718e-09
1.48351e-08
3.56424e-09
7.26033e-09
2.92718e-09
2.35876e-09
1.96765e-09
1.52688e-09
1.63956e-09
1.81385e-09
2.0518e-09
2.32728e-09
2.68339e-09
3.06377e-09
3.60112e-09
4.05058e-09
4.89979e-09
5.33714e-09
6.62903e-09
6.94717e-09
8.50404e-09
9.03885e-09
1.06516e-08
1.21399e-08
1.29293e-08
1.50075e-08
8.05312e-09
1.05657e-08
1.52765e-08
9.9861e-09
6.02991e-09
1.50768e-08
3.85926e-09
7.3707e-09
2.7583e-09
2.55832e-09
2.1363e-09
1.66253e-09
1.74477e-09
1.8959e-09
2.10616e-09
2.35438e-09
2.68222e-09
3.0386e-09
3.53888e-09
3.9656e-09
4.73782e-09
5.16672e-09
6.31003e-09
6.67652e-09
8.03966e-09
8.60949e-09
9.90238e-09
1.12981e-08
1.18849e-08
1.37654e-08
7.89731e-09
1.01987e-08
1.48097e-08
7.44585e-09
6.89415e-09
1.44115e-08
3.77431e-09
7.80567e-09
3.14722e-09
2.49816e-09
2.16018e-09
1.75196e-09
1.80811e-09
1.93524e-09
2.12596e-09
2.35619e-09
2.66342e-09
3.00479e-09
3.472e-09
3.88876e-09
4.58745e-09
5.02656e-09
6.02604e-09
6.45291e-09
7.62895e-09
8.24903e-09
9.30207e-09
1.0603e-08
1.10743e-08
1.27393e-08
7.83277e-09
1.05764e-08
1.55948e-08
5.98201e-09
5.57866e-09
1.54937e-08
4.40392e-09
7.16923e-09
2.89016e-09
2.80102e-09
2.37627e-09
1.79558e-09
1.81616e-09
1.93439e-09
2.11186e-09
2.33095e-09
2.62532e-09
2.9599e-09
3.40154e-09
3.8169e-09
4.45143e-09
4.91066e-09
5.78163e-09
6.26772e-09
7.28075e-09
7.94318e-09
8.83047e-09
1.00245e-08
1.04626e-08
1.18855e-08
7.80294e-09
8.41566e-09
1.34622e-08
1.57706e-09
7.11516e-09
1.31364e-08
3.70398e-09
8.13128e-09
3.36708e-09
2.59612e-09
2.13582e-09
1.7334e-09
1.75282e-09
1.85747e-09
2.04238e-09
2.26995e-09
2.56514e-09
2.90279e-09
3.32747e-09
3.74882e-09
4.33134e-09
4.81429e-09
5.57876e-09
6.11686e-09
6.9943e-09
7.68747e-09
8.46007e-09
9.55367e-09
9.99625e-09
1.12075e-08
7.14676e-09
1.01726e-08
1.55845e-08
1.30477e-09
2.39802e-09
1.54933e-08
4.9594e-09
6.04699e-09
2.92964e-09
2.84751e-09
2.28291e-09
1.63842e-09
1.61959e-09
1.74871e-09
1.94338e-09
2.18208e-09
2.48567e-09
2.83287e-09
3.24942e-09
3.68119e-09
4.22466e-09
4.73223e-09
5.41227e-09
5.99701e-09
6.76141e-09
7.4848e-09
8.16844e-09
9.1798e-09
9.64322e-09
1.06973e-08
1.14127e-08
6.47088e-09
1.13126e-08
8.34985e-09
7.59347e-09
1.24884e-08
3.05446e-09
7.94877e-09
2.18768e-09
4.29429e-10
6.4836e-10
5.43797e-10
1.75956e-11
1.28766e-10
4.71101e-10
8.81165e-10
1.33776e-09
1.82437e-09
2.35059e-09
2.89284e-09
3.50211e-09
4.10153e-09
4.80497e-09
5.47868e-09
6.20611e-09
7.06407e-09
7.59584e-09
8.7664e-09
9.11029e-09
1.02365e-08
8.20502e-09
1.50169e-08
1.03788e-08
3.06695e-09
7.16533e-11
1.76211e-09
9.61854e-10
7.93573e-10
3.3978e-10
1.03936e-10
2.50568e-11
7.04718e-12
3.09863e-12
1.6988e-12
1.19822e-12
1.03959e-12
1.04098e-12
1.08022e-12
1.16925e-12
1.15786e-12
1.17063e-12
9.72012e-13
7.35641e-13
4.41073e-13
1.95357e-13
2.82186e-14
6.26502e-14
1.05447e-12
3.10252e-12
8.53666e-12
3.64089e-11
1.18442e-11
1.34632e-12
6.07441e-12
2.04978e-13
2.13987e-12
1.00623e-12
1.13523e-12
3.5767e-13
8.34806e-14
1.65933e-14
3.75711e-15
1.27015e-15
4.52459e-16
2.55922e-16
2.10871e-16
2.22039e-16
2.56491e-16
3.17457e-16
3.81093e-16
4.7367e-16
5.60036e-16
6.03491e-16
7.72925e-16
6.45195e-16
9.10967e-16
5.93317e-16
9.5012e-16
2.17904e-16
1.20107e-16
2.87842e-08
4.33335e-10
9.3982e-09
1.06122e-09
1.25896e-10
1.09313e-08
5.86919e-08
7.35461e-10
2.56763e-09
5.98168e-08
1.0375e-07
9.35574e-08
7.89058e-09
7.56725e-08
1.78733e-08
8.03706e-08
1.16809e-08
1.09241e-06
6.52618e-07
3.03379e-08
1.19149e-07
5.58236e-08
5.30761e-08
3.40058e-08
5.80024e-08
7.63137e-08
7.43466e-08
3.32805e-08
9.49676e-08
5.28503e-07
5.48616e-08
5.25584e-08
4.61867e-08
4.87959e-08
5.23587e-08
5.00146e-08
3.5939e-08
7.44384e-08
1.06853e-07
9.91028e-08
7.18538e-08
3.45017e-08
4.36441e-08
3.86949e-08
3.6393e-08
5.23409e-08
4.76564e-08
3.86046e-08
7.58121e-08
8.57357e-08
3.19807e-08
3.82978e-08
3.87827e-08
3.76462e-08
4.1075e-08
4.51221e-08
4.03769e-08
6.77181e-08
5.74698e-08
6.14758e-08
3.91623e-08
2.72987e-08
3.08755e-08
3.32861e-08
3.12972e-08
4.01214e-08
3.88466e-08
3.15869e-08
5.27891e-08
4.97199e-08
2.43202e-08
2.77062e-08
2.85622e-08
2.91442e-08
3.16267e-08
4.05701e-08
3.36667e-08
3.93483e-08
3.35111e-08
3.93765e-08
2.46727e-08
2.27186e-08
2.51529e-08
2.67336e-08
2.74091e-08
2.98632e-08
2.93935e-08
2.77253e-08
3.31979e-08
3.0523e-08
1.97732e-08
2.09157e-08
2.28825e-08
2.53241e-08
2.49047e-08
2.67537e-08
2.5334e-08
2.67048e-08
2.41761e-08
2.48276e-08
1.81178e-08
1.86254e-08
2.07756e-08
2.28363e-08
2.21697e-08
2.23277e-08
2.21906e-08
2.15287e-08
2.22359e-08
2.05825e-08
1.61106e-08
1.68528e-08
1.88517e-08
2.15771e-08
1.99265e-08
1.94696e-08
1.91252e-08
1.93202e-08
1.78676e-08
1.66786e-08
1.4677e-08
1.54068e-08
1.7163e-08
1.92279e-08
1.78378e-08
1.71476e-08
1.68233e-08
1.63749e-08
1.57091e-08
1.41453e-08
1.34649e-08
1.41199e-08
1.56279e-08
1.73272e-08
1.60503e-08
1.52129e-08
1.47228e-08
1.43614e-08
1.31855e-08
1.16292e-08
1.25003e-08
1.30859e-08
1.4294e-08
1.54407e-08
1.44899e-08
1.36754e-08
1.30819e-08
1.24773e-08
1.13825e-08
9.79114e-09
1.1769e-08
1.22553e-08
1.31676e-08
1.39037e-08
1.32074e-08
1.24118e-08
1.17041e-08
1.09966e-08
9.75265e-09
8.15896e-09
1.12273e-08
1.16257e-08
1.22711e-08
1.27405e-08
1.22123e-08
1.14667e-08
1.06514e-08
9.88687e-09
8.56799e-09
7.03177e-09
1.06568e-08
1.0902e-08
1.12049e-08
1.13951e-08
1.09567e-08
9.99778e-09
9.17996e-09
7.70567e-09
6.50625e-09
4.126e-09
2.10773e-11
4.2764e-11
6.45634e-11
1.24851e-10
1.36462e-10
1.4261e-10
1.06916e-10
1.12156e-10
7.85804e-11
5.4111e-11
3.24655e-16
2.67366e-15
7.53228e-15
1.59312e-14
2.33943e-14
2.57228e-14
2.06722e-14
2.55452e-14
2.2793e-14
1.03715e-14
1.40034e-07
9.03072e-09
3.79795e-09
3.73016e-09
1.97259e-08
7.74162e-08
1.38651e-07
3.13054e-08
3.2653e-09
3.94907e-10
5.89527e-11
1.00987e-11
1.89143e-12
3.85288e-13
8.69653e-14
2.21414e-14
6.41557e-15
2.11727e-15
7.8701e-16
3.23493e-16
1.44944e-16
6.97676e-17
3.53255e-17
1.85433e-17
1.00557e-17
5.59886e-18
3.15252e-18
1.79968e-18
1.03904e-18
6.11807e-19
3.65467e-19
2.05807e-19
1.40529e-19
5.82917e-20
6.13648e-20
1.66058e-20
1.47693e-20
1.15432e-20
3.82046e-21
2.31542e-20
2.06554e-08
2.15781e-07
1.85251e-07
7.0044e-08
1.6544e-07
1.74957e-07
1.57748e-07
1.29918e-07
1.00536e-07
7.25056e-08
4.68139e-08
2.55367e-08
1.13691e-08
4.23168e-09
1.41461e-09
4.5831e-10
1.5192e-10
5.31051e-11
1.9818e-11
7.9052e-12
3.35835e-12
1.5102e-12
7.12634e-13
3.49918e-13
1.77858e-13
9.32326e-14
5.0146e-14
2.75299e-14
1.53955e-14
8.68828e-15
5.03613e-15
2.79827e-15
1.77473e-15
8.70977e-16
6.74349e-16
2.92529e-16
2.03292e-16
1.24879e-16
5.34434e-17
2.79682e-17
4.62103e-08
1.91427e-07
1.15111e-07
3.67287e-09
1.18186e-07
1.68214e-07
1.4557e-07
1.26524e-07
1.01967e-07
7.7956e-08
5.81465e-08
4.32617e-08
3.25103e-08
2.48036e-08
1.91941e-08
1.49892e-08
1.17255e-08
9.10718e-09
6.95461e-09
5.16839e-09
3.70196e-09
2.5357e-09
1.65328e-09
1.02579e-09
6.08307e-10
3.47498e-10
1.93071e-10
1.05246e-10
5.68383e-11
3.04509e-11
1.6545e-11
8.69828e-12
5.07701e-12
2.42571e-12
1.68996e-12
7.19395e-13
4.8908e-13
2.60806e-13
1.39669e-13
6.26974e-14
5.51752e-08
1.68911e-07
8.82565e-07
1.71646e-06
3.15678e-08
2.01346e-07
1.3935e-07
9.9313e-08
8.58767e-08
7.36969e-08
5.74828e-08
4.29075e-08
3.19516e-08
2.41379e-08
1.85716e-08
1.45374e-08
1.15477e-08
9.28384e-09
7.53738e-09
6.16894e-09
5.0825e-09
4.21029e-09
3.50346e-09
2.92606e-09
2.45117e-09
2.05818e-09
1.73117e-09
1.45732e-09
1.22715e-09
1.03147e-09
8.67101e-10
7.21329e-10
6.07763e-10
4.86936e-10
4.20234e-10
3.11524e-10
2.71163e-10
1.91519e-10
1.61159e-10
9.54481e-11
5.06948e-07
2.5093e-10
4.2744e-06
5.00384e-06
7.20401e-08
2.43427e-07
2.05345e-07
1.21075e-07
6.91565e-08
5.72472e-08
5.00484e-08
3.96102e-08
3.00503e-08
2.28836e-08
1.77274e-08
1.39696e-08
1.11641e-08
9.02086e-09
7.35251e-09
6.03457e-09
4.981e-09
4.13051e-09
3.43851e-09
2.87185e-09
2.40538e-09
2.01955e-09
1.69919e-09
1.43205e-09
1.20895e-09
1.0212e-09
8.64899e-10
7.30071e-10
6.23451e-10
5.2028e-10
4.55269e-10
3.685e-10
3.3374e-10
2.62298e-10
2.4443e-10
1.74207e-10
3.15967e-07
1.96279e-07
5.69737e-06
6.03115e-06
1.91677e-06
1.06471e-07
2.10079e-08
2.82605e-10
2.55228e-08
4.91511e-08
3.95954e-08
3.27407e-08
2.64035e-08
2.0903e-08
1.65813e-08
1.32752e-08
1.0731e-08
8.74522e-09
7.17411e-09
5.9173e-09
4.90278e-09
4.07756e-09
3.40213e-09
2.84648e-09
2.38737e-09
2.0065e-09
1.6895e-09
1.42463e-09
1.2031e-09
1.01638e-09
8.60949e-10
7.26438e-10
6.20534e-10
5.17104e-10
4.52422e-10
3.66085e-10
3.30203e-10
2.60135e-10
2.41073e-10
1.70824e-10
4.04241e-07
1.69026e-07
5.19054e-06
4.97056e-06
5.55096e-08
1.75399e-07
1.42296e-07
5.9407e-07
1.76778e-07
4.04325e-08
8.14328e-09
2.51061e-08
2.34818e-08
1.94792e-08
1.57646e-08
1.27357e-08
1.03565e-08
8.48479e-09
6.99414e-09
5.79338e-09
4.81748e-09
4.01873e-09
3.36138e-09
2.81811e-09
2.36753e-09
1.99253e-09
1.67958e-09
1.41751e-09
1.19797e-09
1.01261e-09
8.58327e-10
7.2419e-10
6.19346e-10
5.15359e-10
4.51646e-10
3.65347e-10
3.2844e-10
2.60451e-10
2.3949e-10
1.70805e-10
1.24017e-08
2.17854e-07
5.52944e-06
3.33979e-06
2.47926e-07
2.62404e-07
7.78273e-08
3.768e-08
1.02003e-07
5.96632e-08
2.94016e-08
2.00375e-08
1.80114e-08
1.60119e-08
1.37886e-08
1.17808e-08
9.99584e-09
8.42205e-09
7.06322e-09
5.91258e-09
4.94958e-09
4.14764e-09
3.48057e-09
2.92529e-09
2.46234e-09
2.07554e-09
1.75176e-09
1.47998e-09
1.25187e-09
1.05886e-09
8.98209e-10
7.57852e-10
6.49012e-10
5.39241e-10
4.73496e-10
3.82937e-10
3.43133e-10
2.74137e-10
2.50064e-10
1.79871e-10
2.51501e-11
6.28236e-09
1.27442e-06
1.6214e-07
2.79456e-07
6.25241e-08
2.81318e-09
7.99682e-09
2.18903e-08
5.01002e-08
7.1825e-08
6.0053e-08
4.05366e-08
2.66979e-08
1.83393e-08
1.34184e-08
1.04292e-08
8.43613e-09
6.96438e-09
5.8038e-09
4.85905e-09
4.07897e-09
3.43044e-09
2.88924e-09
2.43653e-09
2.05711e-09
1.73859e-09
1.47055e-09
1.24508e-09
1.05391e-09
8.9477e-10
7.55035e-10
6.47526e-10
5.37223e-10
4.72694e-10
3.82255e-10
3.41467e-10
2.74922e-10
2.48855e-10
1.80696e-10
1.92012e-06
3.19938e-07
1.80232e-07
2.00872e-07
4.92096e-09
7.08024e-09
3.80884e-07
1.35001e-06
2.38999e-09
5.36713e-08
6.61541e-08
4.83133e-08
3.32903e-08
2.25704e-08
1.55209e-08
1.16353e-08
9.42964e-09
7.89864e-09
6.66412e-09
5.62297e-09
4.7423e-09
3.99994e-09
3.37546e-09
2.8504e-09
2.40888e-09
2.03732e-09
1.72437e-09
1.46028e-09
1.23764e-09
1.04847e-09
8.90969e-10
7.51962e-10
6.4579e-10
5.35099e-10
4.71789e-10
3.81544e-10
3.39926e-10
2.7567e-10
2.47829e-10
1.81589e-10
4.01321e-08
1.81669e-07
1.90605e-07
1.34139e-07
1.42541e-07
2.26576e-07
1.89722e-07
4.9559e-07
1.03297e-06
7.45558e-08
2.20849e-08
4.06736e-08
3.63532e-08
2.31042e-08
1.49858e-08
1.11432e-08
9.07276e-09
7.64015e-09
6.47423e-09
5.48338e-09
4.64023e-09
3.92572e-09
3.32172e-09
2.81161e-09
2.3809e-09
2.01713e-09
1.70978e-09
1.44972e-09
1.23e-09
1.04291e-09
8.87047e-10
7.48847e-10
6.43957e-10
5.33052e-10
4.70883e-10
3.80864e-10
3.38592e-10
2.76328e-10
2.47005e-10
1.8247e-10
6.19238e-08
8.42564e-08
1.31023e-07
1.17162e-07
1.00567e-07
8.53247e-08
5.59772e-08
2.94989e-08
2.65679e-08
7.65026e-08
7.45399e-08
5.42061e-08
3.72115e-08
2.49221e-08
1.67002e-08
1.18752e-08
9.20889e-09
7.55754e-09
6.34431e-09
5.36409e-09
4.54509e-09
3.8538e-09
3.26859e-09
2.77278e-09
2.35266e-09
1.99663e-09
1.6949e-09
1.43892e-09
1.22216e-09
1.0372e-09
8.82977e-10
7.45682e-10
6.41993e-10
5.31088e-10
4.69926e-10
3.80161e-10
3.37455e-10
2.76779e-10
2.46356e-10
1.83196e-10
3.4941e-08
7.92624e-08
7.45998e-08
1.04263e-07
9.9573e-08
1.14602e-07
1.1272e-07
4.48716e-08
3.26853e-08
5.64683e-08
5.65331e-08
4.60551e-08
3.11845e-08
1.89505e-08
1.25445e-08
9.76876e-09
8.26767e-09
7.11155e-09
6.09932e-09
5.21047e-09
4.44061e-09
3.77978e-09
3.2152e-09
2.73404e-09
2.32451e-09
1.97616e-09
1.68e-09
1.42808e-09
1.21428e-09
1.03145e-09
8.7884e-10
7.42544e-10
6.39936e-10
5.29253e-10
4.68918e-10
3.79422e-10
3.3653e-10
2.76961e-10
2.45867e-10
1.83673e-10
6.14673e-08
5.23949e-08
7.49342e-08
5.99856e-08
5.23195e-08
8.60237e-08
7.06552e-08
4.11802e-08
5.78462e-08
5.62833e-08
4.61556e-08
3.60495e-08
2.61947e-08
1.83054e-08
1.31734e-08
1.01991e-08
8.3633e-09
7.04204e-09
5.98595e-09
5.10309e-09
4.35296e-09
3.71232e-09
3.16464e-09
2.69665e-09
2.29705e-09
1.95607e-09
1.66531e-09
1.41735e-09
1.20645e-09
1.02575e-09
8.74698e-10
7.39487e-10
6.37808e-10
5.27573e-10
4.67854e-10
3.78636e-10
3.35825e-10
2.76832e-10
2.45521e-10
1.83832e-10
3.07569e-08
3.71411e-08
4.09201e-08
5.73033e-08
6.28948e-08
6.30785e-08
3.72215e-08
3.7162e-08
4.9217e-08
4.44301e-08
3.53843e-08
2.6305e-08
1.85379e-08
1.34206e-08
1.06831e-08
9.06278e-09
7.81679e-09
6.74022e-09
5.79627e-09
4.97341e-09
4.26029e-09
3.64481e-09
3.11514e-09
2.66031e-09
2.27039e-09
1.93653e-09
1.65099e-09
1.40688e-09
1.19879e-09
1.02019e-09
8.70616e-10
7.36557e-10
6.35636e-10
5.26067e-10
4.66739e-10
3.77803e-10
3.35342e-10
2.76377e-10
2.45306e-10
1.83635e-10
3.58798e-08
3.26117e-08
3.63355e-08
3.44752e-08
3.36055e-08
4.31389e-08
4.23232e-08
3.18053e-08
2.68593e-08
2.64031e-08
2.32075e-08
1.91049e-08
1.53134e-08
1.24641e-08
1.04413e-08
8.90184e-09
7.64352e-09
6.57697e-09
5.65915e-09
4.86503e-09
4.17728e-09
3.58233e-09
3.06859e-09
2.62584e-09
2.24496e-09
1.91782e-09
1.63724e-09
1.39681e-09
1.19142e-09
1.01483e-09
8.66653e-10
7.33794e-10
6.33452e-10
5.24751e-10
4.6559e-10
3.76937e-10
3.35081e-10
2.75605e-10
2.45212e-10
1.83075e-10
2.23178e-08
2.32468e-08
2.4977e-08
3.31039e-08
3.15643e-08
3.09635e-08
2.82164e-08
2.33118e-08
2.31332e-08
2.25056e-08
1.95442e-08
1.61113e-08
1.3342e-08
1.13277e-08
9.77645e-09
8.48195e-09
7.35979e-09
6.37626e-09
5.51322e-09
4.7574e-09
4.09745e-09
3.52306e-09
3.02465e-09
2.59333e-09
2.22094e-09
1.90011e-09
1.62422e-09
1.38727e-09
1.18441e-09
1.00976e-09
8.62863e-10
7.31235e-10
6.31295e-10
5.23637e-10
4.64431e-10
3.76061e-10
3.35038e-10
2.74554e-10
2.45239e-10
1.82179e-10
2.29233e-08
2.16078e-08
2.14852e-08
2.16777e-08
2.15751e-08
2.26211e-08
2.30272e-08
2.16658e-08
1.92512e-08
1.71408e-08
1.53609e-08
1.36688e-08
1.20935e-08
1.06529e-08
9.34833e-09
8.17714e-09
7.13234e-09
6.20447e-09
5.3835e-09
4.65977e-09
4.02428e-09
3.46844e-09
2.984e-09
2.56316e-09
2.19861e-09
1.88362e-09
1.61207e-09
1.37835e-09
1.17786e-09
1.00503e-09
8.59303e-10
7.28908e-10
6.29207e-10
5.22732e-10
4.63296e-10
3.75204e-10
3.35205e-10
2.73285e-10
2.45395e-10
1.81006e-10
1.58661e-08
1.58378e-08
1.63995e-08
1.92462e-08
2.05858e-08
1.89202e-08
1.84855e-08
1.76371e-08
1.6593e-08
1.54953e-08
1.42061e-08
1.28038e-08
1.1426e-08
1.01406e-08
8.96199e-09
7.88874e-09
6.91748e-09
6.04417e-09
5.2637e-09
4.57023e-09
3.95742e-09
3.41858e-09
2.94689e-09
2.53559e-09
2.17816e-09
1.86851e-09
1.60093e-09
1.37018e-09
1.17184e-09
1.0007e-09
8.56023e-10
7.26839e-10
6.27232e-10
5.22037e-10
4.62221e-10
3.74405e-10
3.35574e-10
2.71882e-10
2.45696e-10
1.79652e-10
1.47396e-08
1.42271e-08
1.38697e-08
1.38193e-08
1.46322e-08
1.52281e-08
1.57349e-08
1.54968e-08
1.48425e-08
1.3997e-08
1.29994e-08
1.18972e-08
1.07657e-08
9.66159e-09
8.61191e-09
7.63056e-09
6.72574e-09
5.90112e-09
5.15675e-09
4.49025e-09
3.89765e-09
3.37397e-09
2.91364e-09
2.51086e-09
2.15981e-09
1.85493e-09
1.59091e-09
1.36282e-09
1.16643e-09
9.96818e-10
8.5307e-10
7.25046e-10
6.25415e-10
5.21545e-10
4.61246e-10
3.73702e-10
3.36134e-10
2.70449e-10
2.46166e-10
1.78249e-10
1.10158e-08
1.0774e-08
1.08557e-08
1.1692e-08
1.29219e-08
1.32157e-08
1.36301e-08
1.36405e-08
1.32938e-08
1.27631e-08
1.20491e-08
1.11793e-08
1.02277e-08
9.25934e-09
8.31154e-09
7.4064e-09
6.55838e-09
5.77606e-09
5.06324e-09
4.42033e-09
3.84539e-09
3.33495e-09
2.88454e-09
2.48919e-09
2.14373e-09
1.84301e-09
1.58211e-09
1.35636e-09
1.16168e-09
9.93434e-10
8.50479e-10
7.23533e-10
6.23793e-10
5.21241e-10
4.6041e-10
3.7313e-10
3.3687e-10
2.69103e-10
2.46836e-10
1.76965e-10
9.29652e-09
9.18862e-09
8.82237e-09
8.96869e-09
1.01645e-08
1.10199e-08
1.18254e-08
1.21448e-08
1.20772e-08
1.17836e-08
1.12751e-08
1.05823e-08
9.77535e-09
8.91947e-09
8.05714e-09
7.21627e-09
6.41631e-09
5.66984e-09
4.98378e-09
4.36087e-09
3.80091e-09
3.30169e-09
2.85971e-09
2.47068e-09
2.12995e-09
1.83278e-09
1.57453e-09
1.35078e-09
1.15757e-09
9.90511e-10
8.48217e-10
7.22245e-10
6.22343e-10
5.21047e-10
4.59683e-10
3.72665e-10
3.37715e-10
2.67909e-10
2.4769e-10
1.75926e-10
7.27764e-09
6.92799e-09
6.76416e-09
7.18695e-09
8.48752e-09
9.50794e-09
1.04563e-08
1.09849e-08
1.11265e-08
1.10107e-08
1.06586e-08
1.01027e-08
9.40888e-09
8.64174e-09
7.84739e-09
7.05809e-09
6.297e-09
5.57972e-09
4.91554e-09
4.30904e-09
3.76142e-09
3.27149e-09
2.83651e-09
2.45277e-09
2.11602e-09
1.82188e-09
1.5659e-09
1.34389e-09
1.15195e-09
9.85965e-10
8.44234e-10
7.19226e-10
6.19031e-10
5.19177e-10
4.56995e-10
3.70571e-10
3.36856e-10
2.64856e-10
2.47095e-10
1.72516e-10
5.89276e-09
5.33576e-09
5.15991e-09
5.84886e-09
7.2552e-09
8.41969e-09
9.46165e-09
1.01304e-08
1.041e-08
1.04027e-08
1.01459e-08
9.67727e-09
9.05899e-09
8.35359e-09
7.60838e-09
6.85775e-09
6.12685e-09
5.43296e-09
4.78681e-09
4.19411e-09
3.65695e-09
3.1748e-09
2.74541e-09
2.36545e-09
2.03097e-09
1.73776e-09
1.48153e-09
1.25821e-09
1.06378e-09
8.94625e-10
7.47548e-10
6.18904e-10
5.07989e-10
4.07318e-10
3.28621e-10
2.38252e-10
2.00538e-10
1.08416e-10
1.0197e-10
2.95139e-11
3.09843e-09
2.40121e-09
2.0863e-09
2.44406e-09
3.54188e-09
4.74638e-09
5.69918e-09
6.23638e-09
6.38662e-09
6.24809e-09
5.87505e-09
5.32175e-09
4.65503e-09
3.9357e-09
3.2101e-09
2.51446e-09
1.87855e-09
1.32595e-09
8.73169e-10
5.27821e-10
2.86855e-10
1.36373e-10
5.45373e-11
1.71992e-11
3.74794e-12
3.90385e-13
4.0583e-15
5.56433e-14
2.96418e-13
5.79315e-13
7.8777e-13
7.78036e-13
8.19295e-13
5.38562e-13
5.75037e-13
3.17435e-13
2.40054e-13
1.93912e-13
9.53048e-14
6.00605e-14
3.23037e-11
1.59487e-11
6.48338e-12
4.29823e-12
5.17973e-12
4.67976e-12
2.79998e-12
1.46852e-12
6.96604e-13
2.49914e-13
4.90161e-14
2.1464e-15
1.56431e-15
1.93284e-14
5.75047e-14
1.01121e-13
1.35041e-13
1.51909e-13
1.5179e-13
1.38974e-13
1.18961e-13
9.6541e-14
7.50264e-14
5.62542e-14
4.09322e-14
2.90352e-14
2.0162e-14
1.37428e-14
9.23919e-15
6.09525e-15
4.05047e-15
2.51962e-15
1.78391e-15
9.31716e-16
7.90912e-16
3.57697e-16
2.55891e-16
1.7125e-16
7.54635e-17
4.09726e-17
7.89081e-15
1.26841e-15
5.81392e-17
7.16674e-16
1.53707e-16
2.50082e-16
1.69307e-16
1.68065e-16
1.83727e-16
2.27606e-16
2.84436e-16
3.27429e-16
3.36126e-16
3.09616e-16
2.61781e-16
2.07496e-16
1.56686e-16
1.1405e-16
8.06957e-17
5.58448e-17
3.79787e-17
2.54663e-17
1.68732e-17
1.10589e-17
7.17737e-18
4.61286e-18
2.94448e-18
1.86329e-18
1.17809e-18
7.3502e-19
4.65483e-19
2.77913e-19
1.9015e-19
9.10075e-20
8.5612e-20
2.74903e-20
2.32761e-20
1.73292e-20
3.9505e-21
1.83554e-20
)
;

boundaryField
{
    inlet
    {
        type            calculated;
        value           nonuniform List<scalar> 
20
(
1.91558e-34
5.75502e-33
5.65466e-33
1.00253e-34
2.58628e-34
1.40267e-35
1.24924e-35
4.91493e-36
4.60128e-36
9.79988e-36
4.028e-35
6.80206e-35
1.45067e-34
1.50707e-34
8.78729e-35
6.31979e-34
2.08733e-34
6.53984e-33
5.97715e-33
1.91941e-34
)
;
    }
    outlet
    {
        type            calculated;
        value           nonuniform List<scalar> 
27
(
1.83446e-34
1.11973e-34
5.95235e-35
2.59813e-35
8.04263e-36
1.12461e-36
4.44918e-40
6.89271e-37
6.1799e-36
2.13229e-35
5.01573e-35
9.52377e-35
1.56826e-34
2.32295e-34
3.1609e-34
3.88312e-34
6.98184e-34
5.25993e-36
1.8184e-38
9.68696e-41
8.56438e-41
1.49189e-38
3.68482e-36
6.00623e-34
4.72997e-34
3.61793e-34
2.68979e-34
)
;
    }
    lowerWall
    {
        type            fixedValue;
        value           uniform 0;
    }
    upperWall
    {
        type            fixedValue;
        value           uniform 0;
    }
    defaultFaces
    {
        type            empty;
    }
}


// ************************************************************************* //
