/*--------------------------------*- C++ -*----------------------------------*\
| =========                 |                                                 |
| \\      /  F ield         | OpenFOAM: The Open Source CFD Toolbox           |
|  \\    /   O peration     | Version:  2112                                  |
|   \\  /    A nd           | Website:  www.openfoam.com                      |
|    \\/     M anipulation  |                                                 |
\*---------------------------------------------------------------------------*/
FoamFile
{
    version     2.0;
    format      ascii;
    arch        "LSB;label=32;scalar=64";
    class       volScalarField;
    location    "0.07";
    object      p;
}
// * * * * * * * * * * * * * * * * * * * * * * * * * * * * * * * * * * * * * //

dimensions      [0 2 -2 0 0 0 0];

internalField   nonuniform List<scalar> 
1880
(
0.00467149
0.00450672
0.00439232
0.00437994
0.00437506
0.00432582
0.00428037
0.00426786
0.00426365
0.00425296
0.00424176
0.00423605
0.00423508
0.00423708
0.00424229
0.00425176
0.00426639
0.00428723
0.00431534
0.00435289
0.00440062
0.00446429
0.00454046
0.00464745
0.00476445
0.00494443
0.0051296
0.00544635
0.00577921
0.00632068
0.00449356
0.00443762
0.00436486
0.0043567
0.00436141
0.00431711
0.00427211
0.00426229
0.0042614
0.0042514
0.00423945
0.00423329
0.00423203
0.00423346
0.00423783
0.00424632
0.00425969
0.00427908
0.00430511
0.00434032
0.00438439
0.0044436
0.00451341
0.00460875
0.00471475
0.00486194
0.00502169
0.00523572
0.00544776
0.00565617
0.00446084
0.00441957
0.00435548
0.00434993
0.0043577
0.00431608
0.00427276
0.00426372
0.0042624
0.0042508
0.00423697
0.00422917
0.00422648
0.00422641
0.00422905
0.00423551
0.00424647
0.0042628
0.00428512
0.00431516
0.00435323
0.00440248
0.00446221
0.00453698
0.00462544
0.00472925
0.00485011
0.00497362
0.0051117
0.00518955
0.0044037
0.00437608
0.00432508
0.00432674
0.00433983
0.00430274
0.00426242
0.00425523
0.0042552
0.00424407
0.00422991
0.00422123
0.00421728
0.00421557
0.00421612
0.00421999
0.0042277
0.00424008
0.00425718
0.00428095
0.00431027
0.00434895
0.00439375
0.004449
0.00451222
0.00457895
0.00465504
0.00471723
0.00476983
0.00475999
0.00437596
0.00435412
0.0043089
0.00431443
0.00433016
0.00429507
0.00425603
0.00424928
0.00424906
0.00423716
0.00422178
0.00421159
0.00420584
0.00420195
0.00419986
0.00420053
0.00420428
0.00421181
0.00422282
0.00423899
0.00425865
0.00428488
0.00431421
0.00434829
0.00438684
0.00441726
0.00445729
0.00446268
0.00447037
0.00440601
0.00435025
0.00433052
0.00428858
0.00429734
0.00431559
0.00428268
0.00424532
0.00423949
0.00423953
0.00422737
0.00421114
0.00419957
0.00419195
0.00418571
0.00418069
0.00417776
0.00417709
0.00417923
0.00418353
0.00419151
0.00420082
0.00421448
0.00422789
0.00424267
0.00425728
0.00425956
0.00426474
0.00423669
0.0041944
0.00410992
0.00433127
0.00431315
0.00427342
0.00428438
0.00430422
0.00427245
0.00423579
0.00423014
0.00422987
0.00421692
0.00419946
0.00418621
0.00417647
0.00416759
0.00415936
0.00415254
0.00414715
0.00414357
0.00414092
0.00414049
0.00413956
0.00414088
0.00413941
0.0041365
0.00413036
0.00410843
0.00408725
0.00402969
0.00396074
0.00385346
0.00431638
0.00429897
0.00426032
0.00427244
0.00429319
0.00426212
0.00422585
0.00422015
0.00421938
0.00420554
0.00418676
0.00417173
0.00415973
0.00414811
0.00413653
0.00412567
0.00411544
0.00410608
0.00409653
0.00408784
0.00407714
0.00406689
0.00405189
0.00403342
0.00400928
0.0039683
0.00392449
0.00384812
0.0037541
0.003636
0.00430503
0.00428794
0.00424984
0.00426258
0.00428374
0.00425286
0.0042165
0.0042104
0.00420888
0.00419391
0.00417361
0.00415667
0.00414234
0.00412787
0.00411289
0.00409797
0.00408296
0.00406793
0.00405172
0.00403519
0.00401545
0.00399466
0.00396769
0.00393576
0.00389651
0.00384011
0.00377895
0.00368718
0.00357865
0.00344998
0.00429694
0.00427994
0.00424194
0.00425476
0.00427585
0.00424474
0.00420792
0.0042011
0.00419857
0.00418231
0.00416039
0.00414146
0.00412473
0.0041074
0.00408906
0.0040702
0.00405058
0.00403012
0.00400769
0.00398391
0.003956
0.00392579
0.00388845
0.00384512
0.00379332
0.00372494
0.00364984
0.00354769
0.00342799
0.0032927
0.00429203
0.0042749
0.00423665
0.00424911
0.00426973
0.00423799
0.00420034
0.00419251
0.00418878
0.00417108
0.00414744
0.00412647
0.00410736
0.00408725
0.00406567
0.00404303
0.00401905
0.00399356
0.00396543
0.00393508
0.00389994
0.00386147
0.00381532
0.00376245
0.00370044
0.00362274
0.00353703
0.00342727
0.00330073
0.00316029
0.00429038
0.00427295
0.00423414
0.00424581
0.00426553
0.0042328
0.004194
0.0041849
0.00417976
0.0041605
0.00413506
0.00411206
0.00409063
0.00406787
0.00404322
0.00401706
0.00398907
0.00395898
0.00392574
0.00388954
0.00384812
0.00380254
0.00374901
0.00368829
0.00361808
0.00353332
0.00343957
0.00332471
0.00319367
0.00304975
0.00429228
0.00427428
0.00423443
0.00424476
0.00426311
0.00422891
0.0041887
0.00417811
0.00417149
0.00415065
0.00412343
0.00409848
0.00407487
0.00404962
0.00402215
0.00399278
0.00396118
0.003927
0.00388926
0.00384796
0.00380116
0.00374956
0.00368995
0.00362287
0.00354619
0.00345613
0.00335646
0.00323825
0.00310467
0.00295866
0.00429843
0.00427963
0.00423841
0.00424699
0.00426363
0.00422762
0.00418537
0.00417299
0.00416462
0.00414198
0.00411296
0.00408609
0.00406042
0.00403289
0.00400287
0.00397063
0.00393585
0.0038981
0.00385646
0.00381082
0.0037595
0.00370289
0.00363835
0.00356618
0.00348449
0.00339054
0.00328662
0.00316641
0.00303162
0.00288471
0.00430896
0.00428826
0.00424433
0.00425007
0.00426424
0.00422595
0.00418164
0.00416758
0.00415769
0.0041336
0.00410316
0.00407474
0.00404733
0.00401784
0.00398564
0.00395095
0.00391344
0.00387265
0.00382773
0.00377846
0.00372342
0.00366275
0.00359428
0.00351813
0.00343264
0.00333586
0.00322899
0.00310772
0.00297272
0.0028259
0.00432818
0.00430527
0.00425774
0.00425973
0.0042707
0.00422935
0.00418229
0.00416581
0.00415369
0.00412763
0.00409532
0.00406519
0.00403615
0.00400492
0.00397082
0.00393405
0.00389427
0.00385095
0.00380336
0.00375114
0.00369312
0.00362921
0.0035577
0.0034785
0.00339021
0.00329145
0.00318261
0.00306091
0.00292634
0.00278026
0.00434919
0.00432035
0.00426674
0.00426439
0.00427209
0.0042279
0.00417843
0.00416018
0.00414692
0.00412025
0.0040871
0.00405638
0.00402637
0.00399394
0.00395843
0.00392007
0.00387851
0.00383323
0.00378353
0.00372902
0.0036687
0.00360233
0.00352852
0.00344709
0.00335678
0.0032567
0.00314661
0.00302489
0.00289108
0.00274607
0.00440244
0.00435976
0.00429274
0.00428276
0.0042846
0.00423528
0.00418211
0.00416126
0.00414569
0.00411703
0.00408253
0.00405039
0.00401916
0.0039856
0.00394895
0.00390934
0.00386644
0.00381968
0.00376843
0.00371222
0.00365022
0.00358207
0.00350662
0.00342366
0.00333197
0.00323112
0.00312029
0.00299889
0.00286586
0.00272198
0.00443129
0.00437391
0.00429804
0.00428509
0.00428342
0.00423085
0.00417538
0.00415307
0.00413716
0.00410928
0.00407592
0.00404422
0.00401306
0.00397919
0.00394204
0.00390177
0.00385805
0.00381036
0.00375811
0.00370082
0.00363773
0.00356845
0.00349194
0.00340804
0.00331545
0.00321427
0.00310304
0.00298219
0.00285015
0.00270731
0.00460782
0.00444147
0.00432374
0.00430632
0.00429475
0.00423696
0.00418086
0.00415571
0.00413626
0.00410738
0.00407423
0.00404236
0.00401049
0.00397616
0.00393869
0.00389805
0.00385391
0.00380575
0.00375301
0.00369519
0.00363159
0.00356177
0.00348482
0.00340045
0.00330756
0.00320617
0.00309498
0.00297457
0.00284369
0.00270287
0.00670224
0.00543774
0.00486801
0.00427345
0.00328476
0.00278607
0.00127576
0.000716746
-0.00100935
-0.00446955
0.00573421
0.00472505
0.00428345
0.00355683
0.00282195
0.00215383
0.000754766
0.00013497
-0.00186639
-0.00384754
0.00524439
0.00458009
0.00409914
0.00356656
0.00284976
0.00215467
0.000997838
0.000253923
-0.00125558
-0.00296371
0.00467918
0.00415781
0.00360766
0.00309291
0.00239226
0.00167093
0.000833819
-9.69936e-05
-0.000920678
-0.00226008
0.00432113
0.0038978
0.00347031
0.00296936
0.00239151
0.00173273
0.000931845
0.000143884
-0.000587524
-0.00159524
0.0039674
0.0036282
0.00313665
0.00268321
0.00212881
0.00149131
0.00085387
0.000111423
-0.000448099
-0.00121924
0.00371039
0.00339268
0.00299235
0.00256386
0.00207714
0.00152538
0.000934333
0.000326067
-0.000177627
-0.000753121
0.00347136
0.00319397
0.00280203
0.00239218
0.00195479
0.00143693
0.00092495
0.00039576
-3.20525e-05
-0.00048613
0.00328552
0.00302517
0.002679
0.00230789
0.00190019
0.00145432
0.00100625
0.000560371
0.000178416
-0.000182101
0.00312266
0.00288274
0.00256618
0.00221039
0.00184128
0.00143976
0.00104366
0.000651346
0.000313568
6.99919e-06
0.00299088
0.00276753
0.00247845
0.00215448
0.00181182
0.00145968
0.00111163
0.000769652
0.000466404
0.000205058
0.002881
0.00267078
0.00240664
0.00210426
0.00178944
0.001472
0.00116072
0.000853584
0.000579148
0.000341269
0.0027917
0.00259292
0.00234912
0.00207162
0.00178146
0.00149516
0.00121454
0.000938078
0.000686288
0.000470952
0.00271974
0.00252949
0.0023035
0.00204679
0.00177934
0.00151643
0.00125895
0.00100521
0.000772068
0.000569166
0.00266307
0.00247964
0.00226801
0.00203037
0.00178281
0.00153916
0.00130026
0.00106504
0.000846357
0.000654585
0.00261969
0.00244159
0.00224147
0.00201977
0.00178903
0.00156038
0.00133556
0.00111433
0.000907035
0.000722533
0.0025878
0.00241409
0.00222286
0.00201402
0.00179663
0.00157955
0.00136552
0.00115504
0.000956334
0.000777337
0.00256603
0.00239601
0.00221187
0.00201322
0.00180605
0.00159734
0.00139126
0.00118838
0.000995887
0.000820365
0.00255288
0.00238559
0.00220644
0.00201485
0.00181491
0.00161173
0.00141092
0.00121342
0.00102458
0.000850517
0.00255158
0.00238789
0.00221232
0.0020246
0.00182822
0.0016282
0.00142976
0.00123514
0.00104846
0.000874634
-0.00701189
-0.00748586
-0.00834979
-0.00721569
-0.00422067
-0.00176651
-5.25269e-05
0.000802659
0.00118404
0.00130317
0.00129204
0.00122494
0.00113809
0.00104836
0.000962882
0.000884167
0.000812666
0.000747978
0.000689386
0.000636105
0.000587384
0.000542555
0.000501036
0.000462334
0.000426025
0.000391748
0.000359193
0.000328099
0.000298247
0.000269452
0.000241558
0.000214419
0.000187924
0.000161942
0.000136403
0.000111194
8.62482e-05
6.15146e-05
3.68707e-05
1.23063e-05
-0.00743852
-0.00778293
-0.00927108
-0.00800351
-0.00472308
-0.00201493
-0.000205353
0.000688538
0.00109372
0.00123272
0.00123862
0.00118445
0.00110735
0.00102491
0.000944841
0.000870133
0.000801623
0.00073919
0.000682322
0.000630376
0.000582701
0.000538699
0.000497843
0.000459678
0.000423808
0.00038989
0.000357631
0.000326784
0.000297139
0.000268518
0.000240771
0.000213759
0.000187371
0.000161483
0.000136023
0.000110889
8.60051e-05
6.1334e-05
3.67558e-05
1.22596e-05
-0.00748904
-0.0089942
-0.0116122
-0.0103658
-0.00609692
-0.00258418
-0.000549803
0.000429049
0.000894333
0.0010848
0.00113047
0.00110529
0.00104904
0.000981558
0.000912197
0.0008452
0.000782306
0.000724018
0.000670256
0.000620674
0.000574825
0.000532252
0.00049253
0.000455275
0.000420142
0.000386825
0.00035506
0.000324622
0.000295319
0.000266988
0.000239484
0.000212681
0.000186469
0.000160739
0.00013541
0.000110399
8.56254e-05
6.10554e-05
3.65861e-05
1.21962e-05
-0.009238
-0.0104217
-0.015763
-0.0143556
-0.0083593
-0.00355005
-0.00106437
2.92512e-05
0.000589855
0.000867281
0.000979416
0.000999763
0.000973845
0.000926696
0.000871234
0.000813974
0.000758076
0.000704935
0.000655036
0.000608403
0.000564841
0.000524068
0.000485777
0.000449672
0.00041547
0.000382916
0.000351779
0.000321863
0.000292998
0.000265034
0.000237843
0.000211306
0.000185322
0.000159791
0.000134636
0.000109784
8.51554e-05
6.07202e-05
3.63868e-05
1.21296e-05
-0.0081363
-0.0122059
-0.0206872
-0.0200855
-0.0109824
-0.00493766
-0.0019231
-0.000560557
0.000185624
0.000596135
0.00079548
0.000872932
0.000884141
0.000861372
0.000822394
0.000776656
0.000729045
0.000682014
0.000636715
0.000593606
0.000552786
0.000514173
0.000477604
0.000442884
0.000409807
0.000378173
0.000347797
0.000318514
0.000290178
0.000262661
0.000235848
0.000209635
0.00018393
0.000158643
0.000133703
0.000109043
8.45931e-05
6.03232e-05
3.61509e-05
1.20502e-05
-0.00997392
-0.0132
-0.023232
-0.0229743
-0.0124514
-0.00599664
-0.00297042
-0.00133403
-0.000301532
0.000303431
0.000610129
0.00074687
0.000793899
0.000794182
0.000770889
0.000736384
0.000697133
0.00065647
0.000616094
0.000576832
0.000539047
0.000502851
0.000468223
0.000435073
0.000403277
0.000372696
0.000343192
0.000314635
0.000286909
0.000259908
0.000233532
0.000207695
0.000182314
0.000157311
0.000132622
0.000108188
8.39452e-05
5.98681e-05
3.5881e-05
1.196e-05
-0.00702725
-0.0130827
-0.0235876
-0.0221459
-0.011729
-0.00565369
-0.0031364
-0.00169485
-0.000643102
5.30306e-05
0.000434239
0.000620977
0.000700602
0.00072327
0.000716008
0.000693236
0.000662758
0.000628798
0.00059363
0.000558464
0.000523933
0.000490344
0.000457822
0.000426387
0.000395997
0.000366576
0.000338036
0.000310287
0.000283239
0.000256813
0.000230928
0.000205511
0.000180495
0.000155812
0.000131406
0.000107228
8.32187e-05
5.93589e-05
3.55794e-05
1.18592e-05
-0.00509276
-0.00831627
-0.0198575
-0.0179993
-0.00970985
-0.00474348
-0.00262931
-0.00139362
-0.000491049
0.000120644
0.000429127
0.000579005
0.000649212
0.000672452
0.000669562
0.000652741
0.000628418
0.000600085
0.000569762
0.000538647
0.000507457
0.000476611
0.000446342
0.00041676
0.0003879
0.000359751
0.000332273
0.000305416
0.000279122
0.000253336
0.000227999
0.000203054
0.000178447
0.000154123
0.000130037
0.000106147
8.24015e-05
5.87865e-05
3.52404e-05
1.1746e-05
-0.004961
-0.00744647
-0.0134121
-0.0116183
-0.00715511
-0.00426537
-0.00265336
-0.00131969
-0.000264555
0.000251398
0.000461897
0.000548367
0.000591346
0.000612021
0.00061607
0.000607808
0.000591195
0.000569306
0.000544264
0.000517457
0.000489783
0.000461818
0.00043392
0.0004063
0.000379071
0.000352285
0.000325952
0.00030006
0.000274586
0.000249498
0.000224762
0.000200335
0.00017618
0.000152253
0.000128521
0.00010495
8.14964e-05
5.81524e-05
3.48649e-05
1.16206e-05
-0.00399307
-0.00486343
-0.00806058
-0.00806849
-0.00541704
-0.0032745
-0.00258915
-0.0022502
-0.00120761
-9.56355e-05
0.000440225
0.000587469
0.00060559
0.000598132
0.000586851
0.000574034
0.000558762
0.000540434
0.000519369
0.000496276
0.000471854
0.000446661
0.0004211
0.000395444
0.000369867
0.000344472
0.000319315
0.000294422
0.000269799
0.000245442
0.000221334
0.000197453
0.000173775
0.000150268
0.000126911
0.000103678
8.05341e-05
5.7478e-05
3.44655e-05
1.14873e-05
-0.00297168
-0.0031797
-0.00505251
-0.00505653
-0.00348599
-0.0021496
-0.00197883
-0.00190991
-0.00112628
-0.000358778
7.30367e-05
0.000288901
0.000405412
0.000472094
0.000507086
0.00052016
0.000518976
0.00050901
0.000493611
0.000474769
0.000453731
0.000431316
0.000408072
0.000384364
0.000360432
0.000336433
0.000312463
0.000288585
0.000264832
0.000241224
0.000217764
0.000194446
0.000171263
0.000148194
0.000125227
0.000102347
7.95265e-05
5.67717e-05
3.40473e-05
1.13478e-05
-0.00210531
-0.00228785
-0.00334643
-0.00364007
-0.00299812
-0.00232264
-0.00163186
-0.000942917
-0.000287575
0.000125327
0.000332371
0.000426135
0.00046697
0.000484254
0.000491466
0.000493361
0.000490336
0.000482306
0.00046994
0.000454218
0.000436044
0.000416149
0.000395083
0.000373245
0.000350915
0.000328288
0.000305496
0.000282631
0.000259752
0.0002369
0.000214097
0.000191354
0.000168676
0.000146055
0.00012349
0.000100972
7.84858e-05
5.60422e-05
3.36154e-05
1.12038e-05
-0.00159069
-0.00174727
-0.00225668
-0.00246475
-0.00208958
-0.00150316
-0.0011342
-0.000896798
-0.0006323
-0.000304874
-3.15635e-05
0.000161629
0.000292291
0.000375559
0.000423607
0.000447369
0.000455665
0.000454214
0.000446345
0.000434085
0.000418759
0.000401279
0.000382285
0.000362232
0.000341444
0.000320148
0.000298508
0.00027664
0.000254626
0.000232527
0.000210382
0.000188216
0.000166048
0.00014388
0.000121721
9.95716e-05
7.74249e-05
5.52985e-05
3.31752e-05
1.1057e-05
-0.00103379
-0.00120304
-0.00156329
-0.00174791
-0.00167636
-0.00141204
-0.00100383
-0.000632516
-0.000274967
-2.43929e-06
0.000170127
0.000275454
0.000339921
0.000380304
0.000406669
0.000422866
0.000430314
0.000430522
0.000425065
0.000415305
0.00040233
0.000386974
0.000369867
0.000351475
0.00033214
0.000312115
0.000291584
0.000270684
0.000249517
0.000228158
0.000206663
0.00018507
0.000163409
0.000141693
0.000119941
9.81614e-05
7.63564e-05
5.45493e-05
3.27316e-05
1.09091e-05
-0.000730973
-0.000888466
-0.00110215
-0.00123333
-0.00117105
-0.000898405
-0.000649187
-0.000471618
-0.000302211
-0.000124994
3.52907e-05
0.000164124
0.000260388
0.000326508
0.000368098
0.00039221
0.000404263
0.000407752
0.000404995
0.000397612
0.00038677
0.000373334
0.000357946
0.000341085
0.000323108
0.000304281
0.000284805
0.000264834
0.000244484
0.000223845
0.000202984
0.000181952
0.00016079
0.00013952
0.000118171
9.67582e-05
7.52927e-05
5.38032e-05
3.22899e-05
1.07618e-05
-0.000390918
-0.000542373
-0.000702855
-0.000826381
-0.000853662
-0.000759203
-0.000575955
-0.000375094
-0.000188962
-2.05647e-05
0.000107998
0.000200235
0.000266975
0.000315401
0.000349201
0.000371027
0.00038329
0.000388049
0.000386969
0.000381371
0.000372283
0.000360502
0.000346641
0.000331167
0.000314437
0.000296726
0.000278242
0.000259152
0.000239582
0.000219634
0.000199386
0.000178898
0.000158221
0.000137386
0.000116431
9.53778e-05
7.42457e-05
5.30686e-05
3.18547e-05
1.06166e-05
-0.000187727
-0.000327029
-0.000453842
-0.000561598
-0.000591251
-0.000505367
-0.000369051
-0.000240139
-0.000117306
-4.24317e-06
9.7065e-05
0.00018173
0.000247324
0.000295415
0.000329114
0.000351314
0.000364417
0.000370349
0.000370645
0.000366513
0.000358899
0.000348545
0.000336028
0.000321797
0.000306203
0.000289518
0.000271958
0.000253693
0.000234861
0.00021557
0.000195907
0.00017594
0.00015573
0.000135314
0.00011474
9.40353e-05
7.3227e-05
5.23534e-05
3.14309e-05
1.04753e-05
2.79974e-05
-0.000107983
-0.000222596
-0.000318383
-0.000366638
-0.000343472
-0.000261226
-0.000160533
-6.07023e-05
3.35642e-05
0.000117794
0.000187762
0.000242881
0.00028461
0.000314926
0.000335684
0.000348542
0.000354946
0.000356125
0.000353092
0.000346669
0.000337517
0.000326167
0.000313038
0.000298465
0.000282717
0.000266007
0.00024851
0.000230367
0.000211692
0.000192582
0.000173109
0.000153342
0.000133327
0.000113116
9.27451e-05
7.22472e-05
5.16652e-05
3.1023e-05
1.03391e-05
0.000172167
4.42461e-05
-6.24751e-05
-0.000151752
-0.00020764
-0.000205771
-0.000152007
-7.82329e-05
-3.38531e-06
6.83979e-05
0.000134723
0.000192266
0.000239312
0.000275999
0.000303356
0.000322608
0.000334956
0.000341512
0.000343264
0.000341054
0.000335587
0.000327442
0.000317096
0.000304935
0.000291274
0.000276371
0.000260436
0.000243645
0.000226139
0.000208038
0.000189443
0.000170432
0.000151082
0.000131443
0.000111576
9.15204e-05
7.13164e-05
5.10111e-05
3.0635e-05
1.02097e-05
0.000309343
0.00018361
8.0292e-05
-7.19691e-06
-6.89289e-05
-8.66203e-05
-5.90241e-05
-9.40411e-06
4.51911e-05
9.9785e-05
0.000152127
0.000199111
0.000238644
0.000270278
0.000294461
0.000311923
0.000323464
0.00032989
0.000331958
0.000330344
0.000325633
0.000318324
0.000308836
0.000297519
0.000284666
0.00027052
0.000255286
0.000239136
0.000222213
0.000204639
0.000186519
0.000167936
0.000148972
0.000129683
0.000110135
9.03735e-05
7.04442e-05
5.03976e-05
3.0271e-05
1.00882e-05
0.000411431
0.00028473
0.000185969
0.000101259
3.63284e-05
7.02681e-06
1.68738e-05
4.84696e-05
8.71236e-05
0.000127847
0.000168527
0.000206392
0.000239254
0.000266269
0.000287435
0.000303089
0.000313712
0.000319852
0.000322066
0.00032088
0.00031677
0.000310154
0.000301397
0.000290813
0.00027867
0.000265197
0.00025059
0.000235016
0.00021862
0.000201524
0.000183836
0.000165643
0.000147032
0.000128063
0.000108807
8.93157e-05
6.9639e-05
4.98309e-05
2.99345e-05
9.97581e-06
0.000499365
0.00037617
0.000275419
0.000190529
0.000122674
8.45463e-05
8.03351e-05
9.71597e-05
0.000122698
0.000152096
0.000183173
0.000213351
0.000240445
0.00026336
0.00028177
0.00029571
0.000305405
0.00031119
0.000313449
0.000312576
0.000308948
0.000302912
0.00029478
0.000284831
0.000273309
0.000260427
0.000246374
0.000231313
0.000215386
0.000198718
0.000181416
0.000163574
0.000145279
0.000126597
0.000107606
8.83571e-05
6.89087e-05
4.93161e-05
2.96284e-05
9.87354e-06
0.000569412
0.000444864
0.000343971
0.000258843
0.000189453
0.000145583
0.00013107
0.000136461
0.000151653
0.000172055
0.000195401
0.000219267
0.000241533
0.000260958
0.000276982
0.000289412
0.000298266
0.000303705
0.000305972
0.000305347
0.00030212
0.000296575
0.00028898
0.00027958
0.000268597
0.000256232
0.000242664
0.000228051
0.000212536
0.000196243
0.000179281
0.000161746
0.00014373
0.000125301
0.000106541
8.75066e-05
6.82598e-05
4.88578e-05
2.93552e-05
9.78213e-06
0.000625103
0.000499469
0.000396854
0.000310894
0.000240545
0.000192698
0.000170432
0.000166952
0.000174077
0.000187458
0.00020473
0.000223584
0.000241978
0.000258585
0.000272675
0.000283879
0.000292055
0.000297225
0.000299514
0.000299112
0.000296238
0.000291122
0.000283992
0.000275066
0.000264549
0.000252628
0.000239477
0.000225251
0.000210089
0.000194118
0.000177448
0.000160176
0.000142397
0.000124185
0.000105623
8.67719e-05
6.76979e-05
4.84589e-05
2.91167e-05
9.7018e-06
0.000668008
0.000540558
0.000435719
0.000348955
0.000278221
0.000227574
0.000199403
0.000189117
0.000190104
0.00019817
0.000210831
0.000225877
0.000241345
0.000255844
0.000268513
0.000278844
0.00028657
0.000291603
0.000293979
0.000293814
0.000291271
0.00028654
0.000279817
0.000271301
0.000261181
0.000249637
0.000236836
0.000222934
0.000208068
0.000192364
0.000175935
0.000158881
0.000141297
0.000123264
0.000104863
8.61612e-05
6.72286e-05
4.81223e-05
2.89151e-05
9.63436e-06
0.000696805
0.000566673
0.000459585
0.000372258
0.000301771
0.000249574
0.000217407
0.000202474
0.000199331
0.000203828
0.00021337
0.000225835
0.000239344
0.000252473
0.000264264
0.000274108
0.000281645
0.000286706
0.000289259
0.000289366
0.000287153
0.000282777
0.000276416
0.000268253
0.00025847
0.00024724
0.000234729
0.000221091
0.000206464
0.000190975
0.000174738
0.000157857
0.000140425
0.000122534
0.000104255
8.56714e-05
6.68481e-05
4.78411e-05
2.87419e-05
9.5696e-06
0.000718624
0.000584005
0.000473025
0.000384723
0.000314509
0.000261339
0.000226743
0.000208875
0.000203126
0.000205487
0.000213277
0.000224364
0.000236886
0.00024938
0.000260821
0.00027053
0.00027809
0.000283282
0.000286037
0.000286387
0.000284434
0.000280323
0.000274221
0.000266302
0.000256746
0.000245726
0.000233406
0.000219938
0.000205464
0.000190112
0.000173995
0.000157222
0.000139884
0.00012208
0.000103876
8.53639e-05
6.66042e-05
4.76585e-05
2.86247e-05
9.52268e-06
)
;

boundaryField
{
    inlet
    {
        type            zeroGradient;
    }
    outlet
    {
        type            fixedValue;
        value           uniform 0;
    }
    lowerWall
    {
        type            zeroGradient;
    }
    upperWall
    {
        type            zeroGradient;
    }
    defaultFaces
    {
        type            empty;
    }
}


// ************************************************************************* //
