/*--------------------------------*- C++ -*----------------------------------*\
| =========                 |                                                 |
| \\      /  F ield         | OpenFOAM: The Open Source CFD Toolbox           |
|  \\    /   O peration     | Version:  2112                                  |
|   \\  /    A nd           | Website:  www.openfoam.com                      |
|    \\/     M anipulation  |                                                 |
\*---------------------------------------------------------------------------*/
FoamFile
{
    version     2.0;
    format      ascii;
    arch        "LSB;label=32;scalar=64";
    class       surfaceScalarField;
    location    "0.07";
    object      phi;
}
// * * * * * * * * * * * * * * * * * * * * * * * * * * * * * * * * * * * * * //

dimensions      [0 3 -1 0 0 0 0];

oriented        oriented;

internalField   nonuniform List<scalar> 
3653
(
9.92132e-07
7.86815e-09
9.80162e-07
1.197e-08
9.66095e-07
1.40673e-08
9.49053e-07
1.70412e-08
9.31707e-07
1.73466e-08
9.16509e-07
1.51974e-08
9.04333e-07
1.21762e-08
8.95414e-07
8.91892e-09
8.89349e-07
6.06528e-09
8.85172e-07
4.17731e-09
8.82e-07
3.17185e-09
8.79312e-07
2.68766e-09
8.76806e-07
2.50635e-09
8.74261e-07
2.54488e-09
8.71504e-07
2.75656e-09
8.68409e-07
3.0952e-09
8.64819e-07
3.58986e-09
8.60656e-07
4.16287e-09
8.55588e-07
5.06874e-09
8.49785e-07
5.80284e-09
8.42108e-07
7.67672e-09
8.34017e-07
8.09077e-09
8.21361e-07
1.26559e-08
8.10069e-07
1.12925e-08
7.87603e-07
2.24662e-08
7.70032e-07
1.75704e-08
7.29026e-07
4.10064e-08
6.92861e-07
3.61648e-08
6.09752e-07
8.3109e-08
9.64231e-08
5.13329e-07
1.00306e-06
4.80334e-09
1.00601e-06
9.01993e-09
1.00865e-06
1.14285e-08
1.01136e-06
1.43393e-08
1.01299e-06
1.57134e-08
1.0132e-06
1.49824e-08
1.01237e-06
1.30149e-08
1.01076e-06
1.05211e-08
1.00869e-06
8.13588e-09
1.00647e-06
6.39496e-09
1.00427e-06
5.38003e-09
1.00204e-06
4.90921e-09
9.99731e-07
4.81979e-09
9.97251e-07
5.02572e-09
9.94518e-07
5.48878e-09
9.91433e-07
6.18025e-09
9.87885e-07
7.13779e-09
9.83733e-07
8.31567e-09
9.78844e-07
9.95757e-09
9.72961e-07
1.16855e-08
9.65964e-07
1.46739e-08
9.57298e-07
1.67572e-08
9.46846e-07
2.3107e-08
9.33878e-07
2.4261e-08
9.17124e-07
3.92201e-08
8.97998e-07
3.66965e-08
8.69708e-07
6.92965e-08
8.40054e-07
6.58184e-08
8.02172e-07
1.20991e-07
1.39429e-07
7.59166e-07
1.00199e-06
2.81263e-09
1.00462e-06
6.38893e-09
1.0073e-06
8.74651e-09
1.01046e-06
1.11858e-08
1.01311e-06
1.30575e-08
1.01455e-06
1.35486e-08
1.0148e-06
1.2765e-08
1.01406e-06
1.12544e-08
1.01261e-06
9.58683e-09
1.01079e-06
8.21679e-09
1.00884e-06
7.33384e-09
1.00682e-06
6.92748e-09
1.00471e-06
6.92901e-09
1.00245e-06
7.2849e-09
9.99965e-07
7.97365e-09
9.97166e-07
8.97941e-09
9.93958e-07
1.03458e-08
9.90222e-07
1.20516e-08
9.85858e-07
1.43215e-08
9.80629e-07
1.69149e-08
9.74572e-07
2.07308e-08
9.66929e-07
2.44001e-08
9.5861e-07
3.14263e-08
9.46965e-07
3.59054e-08
9.35766e-07
5.04198e-08
9.18346e-07
5.4116e-08
9.03015e-07
8.46273e-08
8.81101e-07
8.77327e-08
8.60985e-07
1.41107e-07
1.60399e-07
8.40014e-07
1.00093e-06
1.8784e-09
1.00252e-06
4.80365e-09
1.00439e-06
6.87467e-09
1.00659e-06
8.98833e-09
1.0087e-06
1.095e-08
1.01023e-06
1.20125e-08
1.01102e-06
1.19803e-08
1.01107e-06
1.11986e-08
1.01052e-06
1.01409e-08
1.00953e-06
9.20292e-09
1.00826e-06
8.60571e-09
1.00678e-06
8.40985e-09
1.0051e-06
8.60544e-09
1.00321e-06
9.17511e-09
1.00107e-06
1.01131e-08
9.98628e-07
1.14235e-08
9.95816e-07
1.31578e-08
9.92541e-07
1.53266e-08
9.88743e-07
1.81194e-08
9.8424e-07
2.14183e-08
9.7906e-07
2.59101e-08
9.72755e-07
3.07053e-08
9.65792e-07
3.83892e-08
9.56879e-07
4.48193e-08
9.48156e-07
5.91419e-08
9.35588e-07
6.66844e-08
9.2672e-07
9.3496e-08
9.1084e-07
1.03612e-07
9.07597e-07
1.4435e-07
1.68663e-07
8.99334e-07
1.00048e-06
1.39936e-09
1.00158e-06
3.70161e-09
1.00304e-06
5.42058e-09
1.00481e-06
7.2132e-09
1.00666e-06
9.10078e-09
1.0082e-06
1.04739e-08
1.00919e-06
1.09856e-08
1.0096e-06
1.0794e-08
1.00947e-06
1.02688e-08
1.00892e-06
9.74802e-09
1.00807e-06
9.4578e-09
1.00698e-06
9.50448e-09
1.00567e-06
9.91598e-09
1.00414e-06
1.07021e-08
1.00238e-06
1.18772e-08
1.00034e-06
1.34614e-08
9.9799e-07
1.55058e-08
9.95262e-07
1.80552e-08
9.92133e-07
2.12477e-08
9.88445e-07
2.51066e-08
9.84339e-07
3.00158e-08
9.79333e-07
3.57115e-08
9.74232e-07
4.34908e-08
9.67516e-07
5.15354e-08
9.62e-07
6.46579e-08
9.53648e-07
7.50358e-08
9.49564e-07
9.75799e-08
9.41893e-07
1.11283e-07
9.42342e-07
1.43902e-07
1.7052e-07
9.40485e-07
1.00035e-06
1.05142e-09
1.00115e-06
2.8993e-09
1.00227e-06
4.30321e-09
1.00366e-06
5.81733e-09
1.0052e-06
7.56444e-09
1.00662e-06
9.05549e-09
1.0077e-06
9.89988e-09
1.00837e-06
1.01317e-08
1.00861e-06
1.00294e-08
1.00847e-06
9.88123e-09
1.00803e-06
9.89709e-09
1.00734e-06
1.01966e-08
1.00642e-06
1.08344e-08
1.00529e-06
1.18356e-08
1.00394e-06
1.32264e-08
1.00236e-06
1.50425e-08
1.00053e-06
1.73359e-08
9.98411e-07
2.01734e-08
9.96007e-07
2.36515e-08
9.93231e-07
2.78827e-08
9.90208e-07
3.30389e-08
9.86667e-07
3.92527e-08
9.8321e-07
4.69474e-08
9.78926e-07
5.58196e-08
9.7587e-07
6.77138e-08
9.71279e-07
7.96261e-08
9.7077e-07
9.80887e-08
9.67556e-07
1.14497e-07
9.72925e-07
1.38532e-07
1.64424e-07
9.79021e-07
1.00023e-06
8.17466e-10
1.00085e-06
2.28804e-09
1.00177e-06
3.38074e-09
1.00298e-06
4.6072e-09
1.00437e-06
6.17552e-09
1.00573e-06
7.68814e-09
1.00689e-06
8.7455e-09
1.00772e-06
9.29576e-09
1.00822e-06
9.53234e-09
1.0084e-06
9.70104e-09
1.0083e-06
9.99776e-09
1.00796e-06
1.0538e-08
1.00741e-06
1.13851e-08
1.00667e-06
1.25767e-08
1.00574e-06
1.41497e-08
1.00464e-06
1.61499e-08
1.00335e-06
1.86238e-08
1.00187e-06
2.16531e-08
1.00022e-06
2.52979e-08
9.98367e-07
2.97388e-08
9.96443e-07
3.49628e-08
9.94282e-07
4.14137e-08
9.92414e-07
4.8815e-08
9.90245e-07
5.79886e-08
9.89303e-07
6.8656e-08
9.87916e-07
8.10132e-08
9.89742e-07
9.62628e-08
9.91107e-07
1.13133e-07
9.9808e-07
1.31559e-07
1.56534e-07
1.00597e-06
1.00019e-06
6.26316e-10
1.0007e-06
1.77616e-09
1.00151e-06
2.57431e-09
1.0026e-06
3.51893e-09
1.00389e-06
4.88012e-09
1.00523e-06
6.34821e-09
1.00645e-06
7.52833e-09
1.00744e-06
8.30836e-09
1.00815e-06
8.81747e-09
1.0086e-06
9.25601e-09
1.0088e-06
9.79732e-09
1.00879e-06
1.05498e-08
1.00859e-06
1.15805e-08
1.00823e-06
1.29351e-08
1.00773e-06
1.46522e-08
1.0071e-06
1.67799e-08
1.00636e-06
1.93628e-08
1.00552e-06
2.24927e-08
1.00462e-06
2.61972e-08
1.00366e-06
3.0699e-08
1.00278e-06
3.58458e-08
1.0019e-06
4.22886e-08
1.00145e-06
4.92665e-08
1.0011e-06
5.83375e-08
1.00197e-06
6.77926e-08
1.003e-06
7.99841e-08
1.00682e-06
9.24404e-08
1.011e-06
1.08955e-07
1.01963e-06
1.22921e-07
1.44909e-07
1.03126e-06
1.00017e-06
4.54577e-10
1.00064e-06
1.31189e-09
1.00138e-06
1.82763e-09
1.00241e-06
2.48882e-09
1.00367e-06
3.61923e-09
1.00503e-06
4.99129e-09
1.00633e-06
6.23129e-09
1.00746e-06
7.18077e-09
1.00836e-06
7.90928e-09
1.00905e-06
8.57392e-09
1.00952e-06
9.32572e-09
1.0098e-06
1.02637e-08
1.00993e-06
1.14493e-08
1.00994e-06
1.29294e-08
1.00985e-06
1.47445e-08
1.00968e-06
1.69444e-08
1.00948e-06
1.95708e-08
1.00925e-06
2.27168e-08
1.00906e-06
2.63848e-08
1.00895e-06
3.08172e-08
1.00902e-06
3.57752e-08
1.00929e-06
4.201e-08
1.01007e-06
4.84928e-08
1.01127e-06
5.71398e-08
1.01358e-06
6.54802e-08
1.01656e-06
7.7002e-08
1.02183e-06
8.71724e-08
1.02815e-06
1.02629e-07
1.03782e-06
1.13258e-07
1.32949e-07
1.04978e-06
1.00017e-06
2.87428e-10
1.00062e-06
8.55162e-10
1.00136e-06
1.09414e-09
1.00238e-06
1.46659e-09
1.00365e-06
2.34507e-09
1.00506e-06
3.58397e-09
1.00645e-06
4.83771e-09
1.00772e-06
5.91097e-09
1.00881e-06
6.82021e-09
1.00971e-06
7.67991e-09
1.01042e-06
8.61467e-09
1.01097e-06
9.70858e-09
1.01141e-06
1.10161e-08
1.01175e-06
1.25841e-08
1.01204e-06
1.44534e-08
1.01232e-06
1.66726e-08
1.01261e-06
1.92797e-08
1.01296e-06
2.23646e-08
1.01343e-06
2.59139e-08
1.01408e-06
3.01701e-08
1.015e-06
3.48525e-08
1.01628e-06
4.07283e-08
1.0181e-06
4.66705e-08
1.02057e-06
5.46753e-08
1.02405e-06
6.19946e-08
1.02852e-06
7.2537e-08
1.03485e-06
8.08402e-08
1.0426e-06
9.48763e-08
1.05283e-06
1.03031e-07
1.19759e-07
1.06602e-06
1.00018e-06
1.11955e-10
1.00065e-06
3.7708e-10
1.00141e-06
3.3539e-10
1.00247e-06
4.10438e-10
1.0038e-06
1.01516e-09
1.00529e-06
2.08982e-09
1.0068e-06
3.32629e-09
1.00822e-06
4.49669e-09
1.00947e-06
5.56496e-09
1.01055e-06
6.59871e-09
1.01148e-06
7.69306e-09
1.01227e-06
8.91597e-09
1.01297e-06
1.03147e-08
1.01362e-06
1.1934e-08
1.01426e-06
1.38137e-08
1.01493e-06
1.60015e-08
1.01568e-06
1.85319e-08
1.01655e-06
2.14887e-08
1.01762e-06
2.48502e-08
1.01894e-06
2.88454e-08
1.02061e-06
3.31849e-08
1.02275e-06
3.85939e-08
1.02545e-06
4.39654e-08
1.02893e-06
5.11941e-08
1.03335e-06
5.75771e-08
1.03893e-06
6.69607e-08
1.046e-06
7.37618e-08
1.0547e-06
8.61769e-08
1.06535e-06
9.23825e-08
1.06579e-07
1.07853e-06
1.00019e-06
-8.20301e-11
1.00072e-06
-1.51242e-10
1.00154e-06
-4.85053e-10
1.00267e-06
-7.20365e-10
1.0041e-06
-4.14763e-10
1.00572e-06
4.73446e-10
1.00736e-06
1.68122e-09
1.00892e-06
2.93895e-09
1.01033e-06
4.15943e-09
1.01157e-06
5.35838e-09
1.01267e-06
6.59612e-09
1.01366e-06
7.92424e-09
1.01459e-06
9.3845e-09
1.0155e-06
1.10191e-08
1.01645e-06
1.28674e-08
1.01747e-06
1.49764e-08
1.01863e-06
1.73782e-08
1.01997e-06
2.01491e-08
1.02155e-06
2.3266e-08
1.02346e-06
2.69339e-08
1.02577e-06
3.08791e-08
1.02861e-06
3.57484e-08
1.03205e-06
4.0533e-08
1.03633e-06
4.69086e-08
1.04147e-06
5.24357e-08
1.04786e-06
6.05784e-08
1.05543e-06
6.61834e-08
1.06475e-06
7.68607e-08
1.07552e-06
8.16136e-08
9.33482e-08
1.08875e-06
1.00023e-06
-3.07632e-10
1.00084e-06
-7.63972e-10
1.00177e-06
-1.41868e-09
1.00303e-06
-1.98108e-09
1.0046e-06
-1.98251e-09
1.00636e-06
-1.28812e-09
1.00814e-06
-9.63431e-11
1.00983e-06
1.24628e-09
1.01136e-06
2.62725e-09
1.01273e-06
3.9931e-09
1.01396e-06
5.36546e-09
1.01511e-06
6.77814e-09
1.01622e-06
8.27066e-09
1.01735e-06
9.88505e-09
1.01856e-06
1.16618e-08
1.01989e-06
1.36479e-08
1.02139e-06
1.58743e-08
1.02313e-06
1.84101e-08
1.02516e-06
2.12342e-08
1.02757e-06
2.45243e-08
1.03042e-06
2.80365e-08
1.03384e-06
3.2322e-08
1.03786e-06
3.651e-08
1.04277e-06
4.20039e-08
1.04847e-06
4.67372e-08
1.05541e-06
5.36385e-08
1.06333e-06
5.82615e-08
1.07299e-06
6.72053e-08
1.08375e-06
7.08529e-08
8.03911e-08
1.0967e-06
1.00028e-06
-5.83881e-10
1.00102e-06
-1.50458e-09
1.00211e-06
-2.51016e-09
1.00354e-06
-3.41763e-09
1.00531e-06
-3.74619e-09
1.00726e-06
-3.2368e-09
1.00922e-06
-2.05445e-09
1.01103e-06
-5.64505e-10
1.01263e-06
1.02029e-09
1.01406e-06
2.56657e-09
1.01536e-06
4.0646e-09
1.0166e-06
5.53899e-09
1.01784e-06
7.03021e-09
1.01914e-06
8.58531e-09
1.02055e-06
1.0249e-08
1.02213e-06
1.20692e-08
1.02393e-06
1.40775e-08
1.026e-06
1.63369e-08
1.02841e-06
1.88292e-08
1.03123e-06
2.17031e-08
1.03451e-06
2.47522e-08
1.0384e-06
2.8429e-08
1.0429e-06
3.20146e-08
1.04827e-06
3.66328e-08
1.05439e-06
4.0622e-08
1.0617e-06
4.6327e-08
1.06985e-06
5.01106e-08
1.07965e-06
5.74079e-08
1.09029e-06
6.0207e-08
6.77828e-08
1.1029e-06
1.00041e-06
-9.90198e-10
1.00138e-06
-2.47398e-09
1.00271e-06
-3.84643e-09
1.0044e-06
-5.10604e-09
1.0064e-06
-5.74658e-09
1.00853e-06
-5.36731e-09
1.01058e-06
-4.10685e-09
1.01242e-06
-2.39978e-09
1.01402e-06
-5.80336e-10
1.01545e-06
1.13312e-09
1.01678e-06
2.73891e-09
1.01807e-06
4.24981e-09
1.01939e-06
5.70822e-09
1.02081e-06
7.16717e-09
1.02238e-06
8.67863e-09
1.02415e-06
1.02934e-08
1.02619e-06
1.20452e-08
1.02853e-06
1.3991e-08
1.03124e-06
1.61184e-08
1.0344e-06
1.8548e-08
1.03804e-06
2.11132e-08
1.0423e-06
2.41707e-08
1.04716e-06
2.71516e-08
1.05287e-06
3.09185e-08
1.0593e-06
3.41986e-08
1.06684e-06
3.87788e-08
1.07514e-06
4.18147e-08
1.08495e-06
4.76029e-08
1.09543e-06
4.97188e-08
5.55903e-08
1.10763e-06
1.00055e-06
-1.53626e-09
1.00185e-06
-3.77891e-09
1.00355e-06
-5.5435e-09
1.00565e-06
-7.20301e-09
1.00803e-06
-8.1286e-09
1.0104e-06
-7.74141e-09
1.01254e-06
-6.24848e-09
1.01436e-06
-4.22098e-09
1.01589e-06
-2.10752e-09
1.0172e-06
-1.80677e-10
1.01839e-06
1.55465e-09
1.01959e-06
3.04907e-09
1.02089e-06
4.40814e-09
1.02235e-06
5.70947e-09
1.02401e-06
7.01485e-09
1.02593e-06
8.37803e-09
1.02814e-06
9.83438e-09
1.0307e-06
1.14333e-08
1.03365e-06
1.31678e-08
1.03706e-06
1.51314e-08
1.04098e-06
1.71975e-08
1.04552e-06
1.96322e-08
1.05066e-06
2.20107e-08
1.05662e-06
2.49588e-08
1.06326e-06
2.75563e-08
1.07095e-06
3.10862e-08
1.07933e-06
3.34399e-08
1.08907e-06
3.78615e-08
1.09938e-06
3.94026e-08
4.38018e-08
1.11117e-06
1.00101e-06
-2.54212e-09
1.00281e-06
-5.58298e-09
1.00497e-06
-7.70234e-09
1.00755e-06
-9.78318e-09
1.01026e-06
-1.08438e-08
1.01273e-06
-1.02116e-08
1.01479e-06
-8.3027e-09
1.0164e-06
-5.83365e-09
1.01765e-06
-3.35457e-09
1.01868e-06
-1.20861e-09
1.01972e-06
5.14545e-10
1.02086e-06
1.90767e-09
1.02215e-06
3.11521e-09
1.02364e-06
4.21932e-09
1.02537e-06
5.28229e-09
1.02739e-06
6.35908e-09
1.02974e-06
7.48917e-09
1.03246e-06
8.71465e-09
1.03559e-06
1.00347e-08
1.0392e-06
1.15167e-08
1.04333e-06
1.30743e-08
1.04807e-06
1.48859e-08
1.05341e-06
1.66701e-08
1.05955e-06
1.88244e-08
1.06633e-06
2.07715e-08
1.07412e-06
2.33045e-08
1.08252e-06
2.50373e-08
1.09217e-06
2.82057e-08
1.10232e-06
2.92569e-08
3.23685e-08
1.11375e-06
1.00208e-06
-4.61958e-09
1.00496e-06
-8.46868e-09
1.00796e-06
-1.06952e-08
1.01151e-06
-1.33379e-08
1.01481e-06
-1.41428e-08
1.01725e-06
-1.26468e-08
1.01887e-06
-9.93204e-09
1.01985e-06
-6.81404e-09
1.0204e-06
-3.9006e-09
1.02084e-06
-1.64712e-09
1.02143e-06
-7.61918e-11
1.02222e-06
1.11437e-09
1.0233e-06
2.03653e-09
1.02469e-06
2.82936e-09
1.02641e-06
3.5643e-09
1.02847e-06
4.2966e-09
1.0309e-06
5.06026e-09
1.03373e-06
5.88454e-09
1.037e-06
6.77005e-09
1.04076e-06
7.75762e-09
1.04503e-06
8.79871e-09
1.04993e-06
9.98989e-09
1.05541e-06
1.11881e-08
1.06167e-06
1.25668e-08
1.06854e-06
1.39001e-08
1.07638e-06
1.54599e-08
1.08476e-06
1.66606e-08
1.09437e-06
1.85952e-08
1.10435e-06
1.92739e-08
2.11909e-08
1.11553e-06
1.00315e-06
-7.76959e-09
1.00637e-06
-1.16861e-08
1.00935e-06
-1.36823e-08
1.01252e-06
-1.65034e-08
1.01489e-06
-1.65134e-08
1.01623e-06
-1.39838e-08
1.0169e-06
-1.06065e-08
1.01715e-06
-7.06386e-09
1.01722e-06
-3.96543e-09
1.01739e-06
-1.82232e-09
1.01784e-06
-5.2531e-10
1.01866e-06
2.96734e-10
1.01981e-06
8.883e-10
1.02128e-06
1.35248e-09
1.0231e-06
1.74708e-09
1.02528e-06
2.12216e-09
1.02783e-06
2.50444e-09
1.0308e-06
2.91224e-09
1.03423e-06
3.34747e-09
1.03815e-06
3.83082e-09
1.04261e-06
4.33902e-09
1.04769e-06
4.91663e-09
1.05337e-06
5.50109e-09
1.05978e-06
6.15797e-09
1.06686e-06
6.81829e-09
1.07479e-06
7.53044e-09
1.08331e-06
8.14843e-09
1.09292e-06
8.98009e-09
1.10287e-06
9.32681e-09
1.00004e-08
1.11406e-06
9.9223e-07
9.80544e-07
9.66862e-07
9.50359e-07
9.33845e-07
9.19861e-07
9.09255e-07
9.02191e-07
8.98226e-07
8.96403e-07
8.95878e-07
8.96175e-07
8.97063e-07
8.98416e-07
9.00163e-07
9.02285e-07
9.04789e-07
9.07701e-07
9.11049e-07
9.1488e-07
9.19219e-07
9.24135e-07
9.29636e-07
9.35794e-07
9.42613e-07
9.50143e-07
9.58292e-07
9.67272e-07
9.76599e-07
9.86599e-07
5.89929e-07
-7.65998e-08
6.51199e-07
-6.12704e-08
7.24163e-07
-7.29641e-08
7.0886e-07
1.53033e-08
8.09842e-07
-1.00982e-07
7.63863e-07
4.59789e-08
8.12566e-07
-4.87024e-08
9.69097e-07
-1.56531e-07
8.86998e-07
8.20995e-08
-1.89593e-07
1.07659e-06
8.10044e-07
-1.27477e-07
8.22719e-07
-7.39458e-08
8.55937e-07
-1.06181e-07
9.1962e-07
-4.83804e-08
8.76338e-07
-5.76998e-08
9.62917e-07
-4.06007e-08
1.03906e-06
-1.24845e-07
1.00789e-06
-1.25363e-07
1.00893e-06
8.10576e-08
-4.11391e-07
1.23073e-06
8.48621e-07
-1.36084e-07
8.76988e-07
-1.02312e-07
8.93057e-07
-1.2225e-07
9.07599e-07
-6.29223e-08
9.47705e-07
-9.78056e-08
9.96853e-07
-8.97495e-08
9.74822e-07
-1.02814e-07
1.03719e-06
-1.87728e-07
1.1694e-06
-5.11545e-08
-4.22992e-07
1.181e-06
9.11123e-07
-1.47874e-07
9.30362e-07
-1.21551e-07
9.28664e-07
-1.20553e-07
9.67031e-07
-1.01289e-07
9.74832e-07
-1.05607e-07
1.0032e-06
-1.18113e-07
1.02458e-06
-1.24202e-07
1.03962e-06
-2.02766e-07
1.14226e-06
-1.53795e-07
-3.68076e-07
1.08735e-06
9.47162e-07
-1.5455e-07
9.5107e-07
-1.25459e-07
9.66368e-07
-1.35852e-07
9.75984e-07
-1.10904e-07
9.92418e-07
-1.22041e-07
1.0187e-06
-1.44394e-07
1.03991e-06
-1.45409e-07
1.05001e-06
-2.12869e-07
1.09511e-06
-1.98893e-07
-3.68135e-07
1.09517e-06
9.77665e-07
-1.53193e-07
9.90444e-07
-1.38239e-07
9.88558e-07
-1.33966e-07
1.00751e-06
-1.29856e-07
1.02144e-06
-1.35973e-07
1.02718e-06
-1.50133e-07
1.0454e-06
-1.63628e-07
1.05328e-06
-2.20753e-07
1.0852e-06
-2.30814e-07
-3.35863e-07
1.05293e-06
1.00673e-06
-1.53951e-07
1.00627e-06
-1.37776e-07
1.01188e-06
-1.39578e-07
1.01832e-06
-1.36298e-07
1.02312e-06
-1.40773e-07
1.03566e-06
-1.62674e-07
1.04597e-06
-1.73938e-07
1.0438e-06
-2.18578e-07
1.05663e-06
-2.43643e-07
-3.25575e-07
1.04634e-06
1.02638e-06
-1.49075e-07
1.02898e-06
-1.40375e-07
1.02816e-06
-1.38753e-07
1.0324e-06
-1.40541e-07
1.03946e-06
-1.47836e-07
1.03752e-06
-1.60732e-07
1.04279e-06
-1.79208e-07
1.04093e-06
-2.16715e-07
1.04045e-06
-2.43164e-07
-3.01599e-07
1.01647e-06
1.04517e-06
-1.44465e-07
1.04186e-06
-1.37063e-07
1.03997e-06
-1.3687e-07
1.04022e-06
-1.40786e-07
1.03818e-06
-1.458e-07
1.03897e-06
-1.61525e-07
1.03772e-06
-1.7795e-07
1.0296e-06
-2.08603e-07
1.0225e-06
-2.3606e-07
-2.8291e-07
1.00381e-06
1.05865e-06
-1.37097e-07
1.05413e-06
-1.3254e-07
1.04993e-06
-1.32665e-07
1.04588e-06
-1.36738e-07
1.0436e-06
-1.43519e-07
1.03779e-06
-1.55716e-07
1.03236e-06
-1.72523e-07
1.02208e-06
-1.98327e-07
1.00909e-06
-2.23064e-07
-2.59424e-07
9.856e-07
1.06992e-06
-1.28483e-07
1.06279e-06
-1.2541e-07
1.05599e-06
-1.25866e-07
1.04958e-06
-1.30329e-07
1.04258e-06
-1.36522e-07
1.0353e-06
-1.48429e-07
1.02598e-06
-1.6321e-07
1.01236e-06
-1.84701e-07
9.96036e-07
-2.06741e-07
-2.3659e-07
9.73202e-07
1.07851e-06
-1.18243e-07
1.06955e-06
-1.16445e-07
1.0609e-06
-1.1722e-07
1.05173e-06
-1.21165e-07
1.04286e-06
-1.27649e-07
1.03233e-06
-1.37901e-07
1.02019e-06
-1.5107e-07
1.00457e-06
-1.6908e-07
9.85836e-07
-1.88005e-07
-2.12022e-07
9.61267e-07
1.08513e-06
-1.06668e-07
1.07445e-06
-1.05769e-07
1.06381e-06
-1.06582e-07
1.05288e-06
-1.10236e-07
1.04144e-06
-1.16202e-07
1.02887e-06
-1.2533e-07
1.01446e-06
-1.36661e-07
9.96942e-07
-1.51563e-07
9.76513e-07
-1.67576e-07
-1.87276e-07
9.51767e-07
1.0901e-06
-9.38657e-08
1.07792e-06
-9.35865e-08
1.06576e-06
-9.44303e-08
1.05316e-06
-9.763e-08
1.04002e-06
-1.03068e-07
1.02557e-06
-1.1088e-07
1.0094e-06
-1.20485e-07
9.9057e-07
-1.32736e-07
9.6901e-07
-1.46016e-07
-1.61884e-07
9.43618e-07
1.09375e-06
-7.99884e-08
1.08028e-06
-8.01176e-08
1.06679e-06
-8.09427e-08
1.0529e-06
-8.37343e-08
1.03828e-06
-8.84513e-08
1.02241e-06
-9.50054e-08
1.00489e-06
-1.02974e-07
9.85009e-07
-1.1285e-07
9.62636e-07
-1.23642e-07
-1.36331e-07
9.37082e-07
1.0964e-06
-6.52166e-08
1.08186e-06
-6.55759e-08
1.06731e-06
-6.63939e-08
1.05233e-06
-6.87503e-08
1.03661e-06
-7.27323e-08
1.01963e-06
-7.80242e-08
1.00111e-06
-8.44614e-08
9.80474e-07
-9.22109e-08
9.57567e-07
-1.00735e-07
-1.10558e-07
9.31794e-07
1.09828e-06
-4.9749e-08
1.08291e-06
-5.02023e-08
1.06752e-06
-5.10041e-08
1.05167e-06
-5.29017e-08
1.0351e-06
-5.61621e-08
1.01729e-06
-6.02129e-08
9.98035e-07
-6.52049e-08
9.76824e-07
-7.1e-08
9.53535e-07
-7.74469e-08
-8.46692e-08
9.27647e-07
1.09948e-06
-3.36959e-08
1.08341e-06
-3.41306e-08
1.06729e-06
-3.48915e-08
1.05071e-06
-3.63208e-08
1.03341e-06
-3.88554e-08
1.01491e-06
-4.17162e-08
9.95068e-07
-4.53646e-08
9.73304e-07
-4.92359e-08
9.49682e-07
-5.38246e-08
-5.84355e-08
9.23448e-07
1.09635e-06
-1.59846e-08
1.07875e-06
-1.65357e-08
1.0612e-06
-1.73371e-08
1.04333e-06
-1.84543e-08
1.02464e-06
-2.01663e-08
1.00491e-06
-2.19819e-08
9.83705e-07
-2.41628e-08
9.60625e-07
-2.61553e-08
9.35656e-07
-2.88554e-08
-3.09147e-08
9.08135e-07
9.70614e-07
9.54079e-07
9.36742e-07
9.18287e-07
8.98121e-07
8.76139e-07
8.51976e-07
8.25821e-07
7.96965e-07
7.66051e-07
-1.58908e-07
1.58908e-07
-3.19266e-07
1.60358e-07
-4.39198e-07
1.19932e-07
-4.06525e-07
-3.26732e-08
-2.47906e-07
-1.58619e-07
-7.4589e-08
-1.73317e-07
8.14696e-08
-1.56059e-07
2.06313e-07
-1.24843e-07
3.00626e-07
-9.43126e-08
3.69203e-07
-6.85778e-08
4.18195e-07
-4.89912e-08
4.53058e-07
-3.48639e-08
4.78058e-07
-2.49997e-08
4.96276e-07
-1.82174e-08
5.09825e-07
-1.35489e-08
5.20118e-07
-1.02939e-08
5.28097e-07
-7.97908e-09
5.34392e-07
-6.29413e-09
5.39429e-07
-5.03786e-09
5.4351e-07
-4.08039e-09
5.46846e-07
-3.33629e-09
5.49594e-07
-2.74794e-09
5.5187e-07
-2.27627e-09
5.53765e-07
-1.89438e-09
5.55347e-07
-1.5827e-09
5.56674e-07
-1.32636e-09
5.57788e-07
-1.11415e-09
5.58726e-07
-9.37702e-10
5.59516e-07
-7.90399e-10
5.60183e-07
-6.67012e-10
5.60747e-07
-5.63845e-10
5.61223e-07
-4.76166e-10
5.61629e-07
-4.05725e-10
5.61968e-07
-3.39283e-10
5.62266e-07
-2.97446e-10
5.62504e-07
-2.38822e-10
5.62726e-07
-2.2179e-10
5.62897e-07
-1.71282e-10
5.63062e-07
-1.64471e-10
-1.31468e-10
-1.1453e-07
2.73438e-07
-3.28496e-07
3.74325e-07
-4.94792e-07
2.86227e-07
-4.39843e-07
-8.76222e-08
-2.41526e-07
-3.56935e-07
-4.15581e-08
-3.73285e-07
1.31077e-07
-3.28693e-07
2.68909e-07
-2.62675e-07
3.75063e-07
-2.00467e-07
4.54837e-07
-1.48352e-07
5.14111e-07
-1.08265e-07
5.58126e-07
-7.88784e-08
5.9105e-07
-5.79237e-08
6.15969e-07
-4.31363e-08
6.35089e-07
-3.26698e-08
6.49969e-07
-2.51738e-08
6.61705e-07
-1.97143e-08
6.71072e-07
-1.56616e-08
6.78628e-07
-1.25939e-08
6.84777e-07
-1.02295e-08
6.89818e-07
-8.37753e-09
6.93977e-07
-6.90651e-09
6.97425e-07
-5.72431e-09
7.00296e-07
-4.76531e-09
7.02695e-07
-3.9814e-09
7.04705e-07
-3.33624e-09
7.06393e-07
-2.80221e-09
7.07813e-07
-2.35822e-09
7.09011e-07
-1.98791e-09
7.10021e-07
-1.67778e-09
7.10876e-07
-1.41885e-09
7.11598e-07
-1.19819e-09
7.12214e-07
-1.02083e-09
7.12728e-07
-8.53307e-10
7.13177e-07
-7.46571e-10
7.13539e-07
-6.00716e-10
7.1387e-07
-5.53554e-10
7.14129e-07
-4.29667e-10
7.14372e-07
-4.08101e-10
-3.17955e-10
-1.80776e-07
4.54214e-07
-3.97162e-07
5.9071e-07
-5.57478e-07
4.46543e-07
-4.47751e-07
-1.9735e-07
-2.01692e-07
-6.02993e-07
1.58733e-08
-5.90851e-07
1.79258e-07
-4.92078e-07
3.02571e-07
-3.85988e-07
3.98128e-07
-2.96024e-07
4.713e-07
-2.21524e-07
5.26431e-07
-1.63397e-07
5.67908e-07
-1.20355e-07
5.99417e-07
-8.9433e-08
6.23682e-07
-6.74013e-08
6.42623e-07
-5.16112e-08
6.57592e-07
-4.01423e-08
6.69549e-07
-3.16711e-08
6.79189e-07
-2.53018e-08
6.87025e-07
-2.04296e-08
6.93438e-07
-1.66425e-08
6.98717e-07
-1.36573e-08
7.03086e-07
-1.12754e-08
7.06717e-07
-9.35511e-09
7.09745e-07
-7.79359e-09
7.12279e-07
-6.51471e-09
7.14403e-07
-5.46093e-09
7.16189e-07
-4.58812e-09
7.17693e-07
-3.86214e-09
7.18962e-07
-3.25648e-09
7.20033e-07
-2.749e-09
7.20939e-07
-2.32538e-09
7.21705e-07
-1.96391e-09
7.22358e-07
-1.67324e-09
7.22903e-07
-1.39893e-09
7.23379e-07
-1.22258e-09
7.23764e-07
-9.85913e-10
7.24115e-07
-9.04451e-10
7.2439e-07
-7.0432e-10
7.24648e-07
-6.66045e-10
-5.11327e-10
-1.79246e-07
6.3346e-07
-3.82991e-07
7.94455e-07
-4.94955e-07
5.58507e-07
-3.28654e-07
-3.63651e-07
-6.14148e-08
-8.70233e-07
1.79248e-07
-8.31513e-07
3.12708e-07
-6.25539e-07
3.92957e-07
-4.66237e-07
4.55426e-07
-3.58493e-07
5.08252e-07
-2.7435e-07
5.51183e-07
-2.06327e-07
5.84949e-07
-1.5412e-07
6.1136e-07
-1.15844e-07
6.32183e-07
-8.82247e-08
6.48786e-07
-6.82143e-08
6.62159e-07
-5.35154e-08
6.73019e-07
-4.25308e-08
6.81896e-07
-3.41787e-08
6.89192e-07
-2.77257e-08
6.95217e-07
-2.26675e-08
7.00212e-07
-1.86528e-08
7.04369e-07
-1.5432e-08
7.07839e-07
-1.28247e-08
7.10743e-07
-1.06976e-08
7.13179e-07
-8.9509e-09
7.15227e-07
-7.50877e-09
7.16951e-07
-6.31261e-09
7.18406e-07
-5.31653e-09
7.19634e-07
-4.48479e-09
7.20672e-07
-3.78731e-09
7.21552e-07
-3.20472e-09
7.22295e-07
-2.70725e-09
7.22928e-07
-2.30676e-09
7.23459e-07
-1.92937e-09
7.23921e-07
-1.68495e-09
7.24296e-07
-1.36077e-09
7.24637e-07
-1.24533e-09
7.24903e-07
-9.70801e-10
7.25154e-07
-9.16288e-10
-6.98323e-10
-7.99459e-08
7.13406e-07
-1.90071e-07
9.04581e-07
-2.3379e-07
6.02226e-07
-5.15822e-08
-5.45858e-07
1.47252e-07
-1.06907e-06
3.65742e-07
-1.05e-06
4.91313e-07
-7.51109e-07
5.3185e-07
-5.06774e-07
5.46972e-07
-3.73616e-07
5.64795e-07
-2.92173e-07
5.86431e-07
-2.27963e-07
6.07875e-07
-1.75565e-07
6.26942e-07
-1.34911e-07
6.43152e-07
-1.04435e-07
6.56725e-07
-8.17867e-08
6.68038e-07
-6.48286e-08
6.7746e-07
-5.19528e-08
6.8531e-07
-4.20289e-08
6.91858e-07
-3.42731e-08
6.97326e-07
-2.81363e-08
7.01901e-07
-2.32278e-08
7.05735e-07
-1.92657e-08
7.08953e-07
-1.60427e-08
7.11659e-07
-1.3403e-08
7.13936e-07
-1.12287e-08
7.15857e-07
-9.42914e-09
7.17478e-07
-7.93363e-09
7.18848e-07
-6.68639e-09
7.20006e-07
-5.64361e-09
7.20987e-07
-4.76821e-09
7.21819e-07
-4.03632e-09
7.22523e-07
-3.41093e-09
7.23123e-07
-2.9068e-09
7.23626e-07
-2.43228e-09
7.24064e-07
-2.12326e-09
7.24419e-07
-1.71642e-09
7.24743e-07
-1.56861e-09
7.24995e-07
-1.22326e-09
7.25232e-07
-1.15342e-09
-8.75008e-10
3.76614e-07
3.36792e-07
1.46605e-07
1.13459e-06
2.35859e-07
5.12972e-07
3.96338e-07
-7.06338e-07
4.38856e-07
-1.11159e-06
4.6533e-07
-1.07648e-06
5.55376e-07
-8.41155e-07
6.16743e-07
-5.68141e-07
6.30319e-07
-3.87192e-07
6.27539e-07
-2.89392e-07
6.28174e-07
-2.28598e-07
6.35045e-07
-1.82436e-07
6.45164e-07
-1.4503e-07
6.55909e-07
-1.15181e-07
6.65991e-07
-9.1868e-08
6.74958e-07
-7.37962e-08
6.8274e-07
-5.97347e-08
6.89409e-07
-4.86976e-08
6.95085e-07
-3.99491e-08
6.99898e-07
-3.29492e-08
7.03971e-07
-2.73009e-08
7.07415e-07
-2.27097e-08
7.10326e-07
-1.8954e-08
7.12788e-07
-1.58645e-08
7.1487e-07
-1.33107e-08
7.16631e-07
-1.1191e-08
7.18123e-07
-9.42546e-09
7.19387e-07
-7.95029e-09
7.20459e-07
-6.71504e-09
7.21367e-07
-5.67669e-09
7.22138e-07
-4.80761e-09
7.22792e-07
-4.06438e-09
7.2335e-07
-3.46452e-09
7.23817e-07
-2.90016e-09
7.24225e-07
-2.53119e-09
7.24557e-07
-2.04763e-09
7.24858e-07
-1.86969e-09
7.25093e-07
-1.45828e-09
7.25313e-07
-1.37409e-09
-1.03925e-09
1.65784e-07
1.71008e-07
3.99725e-07
9.00649e-07
6.95288e-07
2.17409e-07
8.49169e-07
-8.60219e-07
7.83873e-07
-1.04629e-06
5.69226e-07
-8.61829e-07
4.85276e-07
-7.57205e-07
5.3656e-07
-6.19424e-07
6.03646e-07
-4.54278e-07
6.39183e-07
-3.2493e-07
6.51308e-07
-2.40722e-07
6.56373e-07
-1.87502e-07
6.61765e-07
-1.50422e-07
6.68418e-07
-1.21833e-07
6.75505e-07
-9.89552e-08
6.82315e-07
-8.0606e-08
6.88507e-07
-6.5927e-08
6.93979e-07
-5.41693e-08
6.98739e-07
-4.47093e-08
7.02843e-07
-3.70531e-08
7.06361e-07
-3.08196e-08
7.09368e-07
-2.5716e-08
7.1193e-07
-2.15167e-08
7.14112e-07
-1.80461e-08
7.15968e-07
-1.51664e-08
7.17545e-07
-1.27687e-08
7.18886e-07
-1.07664e-08
7.20026e-07
-9.08992e-09
7.20994e-07
-7.68364e-09
7.21818e-07
-6.4998e-09
7.22518e-07
-5.50769e-09
7.23112e-07
-4.6584e-09
7.23619e-07
-3.97214e-09
7.24046e-07
-3.32646e-09
7.24418e-07
-2.90317e-09
7.2472e-07
-2.34984e-09
7.24995e-07
-2.14446e-09
7.25209e-07
-1.67275e-09
7.2541e-07
-1.57543e-09
-1.18901e-09
9.99288e-07
2.48311e-07
1.12295e-06
7.76989e-07
1.26606e-06
7.42936e-08
1.18283e-06
-7.76983e-07
9.90715e-07
-8.54178e-07
7.53898e-07
-6.25012e-07
5.69021e-07
-5.72328e-07
5.22352e-07
-5.72756e-07
5.72503e-07
-5.0443e-07
6.37459e-07
-3.89886e-07
6.79497e-07
-2.8276e-07
7.00257e-07
-2.08262e-07
7.09867e-07
-1.60032e-07
7.15545e-07
-1.27511e-07
7.20371e-07
-1.03781e-07
7.25115e-07
-8.53499e-08
7.2974e-07
-7.05518e-08
7.34074e-07
-5.85034e-08
7.38004e-07
-4.86394e-08
7.4149e-07
-4.05394e-08
7.4454e-07
-3.38695e-08
7.47185e-07
-2.83608e-08
7.49465e-07
-2.37972e-08
7.51424e-07
-2.0005e-08
7.53102e-07
-1.68447e-08
7.54538e-07
-1.4204e-08
7.55764e-07
-1.19923e-08
7.5681e-07
-1.0136e-08
7.57702e-07
-8.57572e-09
7.58462e-07
-7.26001e-09
7.5911e-07
-6.15578e-09
7.59661e-07
-5.20938e-09
7.60133e-07
-4.44375e-09
7.60529e-07
-3.72307e-09
7.60876e-07
-3.24962e-09
7.61157e-07
-2.63153e-09
7.61414e-07
-2.40072e-09
7.61614e-07
-1.87281e-09
7.61801e-07
-1.76319e-09
-1.32864e-09
1.31582e-06
1.63222e-07
1.43864e-06
6.54168e-07
1.45723e-06
5.57075e-08
1.14867e-06
-4.68427e-07
9.03006e-07
-6.08512e-07
9.07826e-07
-6.29831e-07
9.10519e-07
-5.75022e-07
8.30387e-07
-4.92624e-07
7.43669e-07
-4.17712e-07
7.04904e-07
-3.5112e-07
6.99605e-07
-2.77462e-07
7.06138e-07
-2.14795e-07
7.1446e-07
-1.68354e-07
7.2166e-07
-1.34711e-07
7.27426e-07
-1.09547e-07
7.32102e-07
-9.00263e-08
7.36052e-07
-7.45014e-08
7.39501e-07
-6.19532e-08
7.42561e-07
-5.16989e-08
7.45278e-07
-4.32568e-08
7.4768e-07
-3.62714e-08
7.49789e-07
-3.04699e-08
7.5163e-07
-2.56375e-08
7.53227e-07
-2.16025e-08
7.54608e-07
-1.82257e-08
7.55798e-07
-1.5394e-08
7.56821e-07
-1.30152e-08
7.57698e-07
-1.10134e-08
7.5845e-07
-9.32722e-09
7.59093e-07
-7.90277e-09
7.59642e-07
-6.70542e-09
7.60111e-07
-5.67785e-09
7.60513e-07
-4.84563e-09
7.60851e-07
-4.06161e-09
7.61147e-07
-3.54583e-09
7.61388e-07
-2.87261e-09
7.61608e-07
-2.62021e-09
7.61779e-07
-2.04428e-09
7.6194e-07
-1.92412e-09
-1.44832e-09
1.16572e-06
1.78505e-07
1.397e-06
4.22885e-07
1.4414e-06
1.1311e-08
1.2682e-06
-2.95227e-07
1.12672e-06
-4.6703e-07
1.10552e-06
-6.0864e-07
1.14766e-06
-6.17163e-07
1.14427e-06
-4.8923e-07
1.05938e-06
-3.32818e-07
9.41237e-07
-2.3298e-07
8.48369e-07
-1.84593e-07
7.92324e-07
-1.5875e-07
7.63183e-07
-1.39212e-07
7.49659e-07
-1.21187e-07
7.44403e-07
-1.04291e-07
7.43284e-07
-8.89079e-08
7.44085e-07
-7.53017e-08
7.45668e-07
-6.35363e-08
7.47489e-07
-5.35202e-08
7.49303e-07
-4.50702e-08
7.51003e-07
-3.79716e-08
7.52549e-07
-3.20164e-08
7.53931e-07
-2.70194e-08
7.55152e-07
-2.2823e-08
7.56221e-07
-1.92951e-08
7.57153e-07
-1.63254e-08
7.5796e-07
-1.38228e-08
7.58658e-07
-1.17111e-08
7.59259e-07
-9.92844e-09
7.59776e-07
-8.41953e-09
7.6022e-07
-7.14915e-09
7.60599e-07
-6.05736e-09
7.60926e-07
-5.17216e-09
7.61202e-07
-4.33733e-09
7.61443e-07
-3.78759e-09
7.6164e-07
-3.06967e-09
7.6182e-07
-2.79983e-09
7.6196e-07
-2.18474e-09
7.62092e-07
-2.056e-09
-1.54641e-09
1.10767e-06
1.58184e-07
1.30126e-06
2.29297e-07
1.30778e-06
4.7852e-09
1.23676e-06
-2.24206e-07
1.08782e-06
-3.18094e-07
8.12797e-07
-3.33613e-07
5.94107e-07
-3.98472e-07
5.41228e-07
-4.3635e-07
5.8687e-07
-3.7846e-07
6.47336e-07
-2.93446e-07
6.91815e-07
-2.29072e-07
7.1874e-07
-1.85676e-07
7.33728e-07
-1.542e-07
7.41738e-07
-1.29197e-07
7.45946e-07
-1.08499e-07
7.48265e-07
-9.12272e-08
7.49782e-07
-7.6818e-08
7.51022e-07
-6.47766e-08
7.52182e-07
-5.46806e-08
7.53305e-07
-4.61933e-08