/*--------------------------------*- C++ -*----------------------------------*\
| =========                 |                                                 |
| \\      /  F ield         | OpenFOAM: The Open Source CFD Toolbox           |
|  \\    /   O peration     | Version:  2112                                  |
|   \\  /    A nd           | Website:  www.openfoam.com                      |
|    \\/     M anipulation  |                                                 |
\*---------------------------------------------------------------------------*/
FoamFile
{
    version     2.0;
    format      ascii;
    arch        "LSB;label=32;scalar=64";
    class       volVectorField;
    location    "0.07";
    object      U;
}
// * * * * * * * * * * * * * * * * * * * * * * * * * * * * * * * * * * * * * //

dimensions      [0 1 -1 0 0 0 0];

internalField   nonuniform List<vector> 
1880
(
(0.098917 0.000648808 0)
(0.098205 0.00100879 0)
(0.098142 0.00122998 0)
(0.0960283 0.00148997 0)
(0.093551 0.00148094 0)
(0.0922833 0.00124515 0)
(0.0912219 0.000942873 0)
(0.0899848 0.000643786 0)
(0.0890972 0.000401115 0)
(0.0886462 0.000249906 0)
(0.088349 0.000173309 0)
(0.0880637 0.000137601 0)
(0.0877949 0.00012355 0)
(0.0875414 0.000123729 0)
(0.087279 0.000133896 0)
(0.086986 0.000150541 0)
(0.0866524 0.000175521 0)
(0.0862582 0.000203362 0)
(0.0858066 0.00025032 0)
(0.0852326 0.000282662 0)
(0.0846156 0.000385459 0)
(0.0837048 0.000389339 0)
(0.0828862 0.000645991 0)
(0.0813283 0.000541805 0)
(0.0802107 0.00114628 0)
(0.0775801 0.000885386 0)
(0.0755003 0.00216249 0)
(0.0711727 0.00184089 0)
(0.0661962 0.00514026 0)
(0.0572925 0.00553477 0)
(0.100001 0.000769833 0)
(0.0999051 0.0012662 0)
(0.101283 0.00150228 0)
(0.10127 0.00183675 0)
(0.100787 0.00192703 0)
(0.101245 0.00174658 0)
(0.101584 0.00144925 0)
(0.101269 0.00110967 0)
(0.100885 0.000796643 0)
(0.100701 0.000577078 0)
(0.100545 0.000454119 0)
(0.100325 0.000395128 0)
(0.100082 0.000375332 0)
(0.0998385 0.000384039 0)
(0.0995791 0.000416479 0)
(0.0992892 0.000467492 0)
(0.0989538 0.000540754 0)
(0.098573 0.000627572 0)
(0.0981045 0.000759404 0)
(0.097597 0.000875271 0)
(0.0968787 0.00114103 0)
(0.096243 0.00122391 0)
(0.0950061 0.00186705 0)
(0.0943503 0.00169338 0)
(0.0920656 0.00330008 0)
(0.0915625 0.00255298 0)
(0.08756 0.00590317 0)
(0.0870049 0.00515155 0)
(0.0810012 0.0109596 0)
(0.0804999 0.0128387 0)
(0.100004 0.000278431 0)
(0.0997763 0.00062016 0)
(0.101116 0.00085065 0)
(0.10114 0.00109963 0)
(0.100739 0.00127596 0)
(0.101318 0.00130289 0)
(0.101779 0.00120218 0)
(0.101561 0.00103371 0)
(0.101248 0.000858061 0)
(0.101115 0.000720634 0)
(0.100992 0.000634845 0)
(0.100795 0.000594666 0)
(0.10057 0.000591391 0)
(0.100348 0.000619575 0)
(0.100112 0.000677179 0)
(0.0998492 0.000762406 0)
(0.0995456 0.000878856 0)
(0.0992023 0.00102477 0)
(0.0987845 0.00121945 0)
(0.0983297 0.00144311 0)
(0.0977103 0.00177323 0)
(0.0971388 0.00209291 0)
(0.0961272 0.00271631 0)
(0.0955385 0.00309612 0)
(0.0937434 0.00446781 0)
(0.0933885 0.00467973 0)
(0.0904122 0.00779714 0)
(0.0901425 0.0078362 0)
(0.0867933 0.0133816 0)
(0.0850519 0.015534 0)
(0.100007 0.000246715 0)
(0.099633 0.000603313 0)
(0.10086 0.000843413 0)
(0.100793 0.00108234 0)
(0.100311 0.00128219 0)
(0.100863 0.00135902 0)
(0.101362 0.00130938 0)
(0.101218 0.00118246 0)
(0.100993 0.00103249 0)
(0.100949 0.000903613 0)
(0.100904 0.000818677 0)
(0.100767 0.000781129 0)
(0.100591 0.000786546 0)
(0.100408 0.000830479 0)
(0.100208 0.000910702 0)
(0.0999806 0.00102602 0)
(0.0997126 0.00118146 0)
(0.0994178 0.00137533 0)
(0.0990415 0.00163101 0)
(0.0986744 0.00192454 0)
(0.0980976 0.00234905 0)
(0.0977059 0.00276399 0)
(0.0967372 0.00352675 0)
(0.096477 0.00404812 0)
(0.0948304 0.00554275 0)
(0.0949136 0.00608237 0)
(0.0924499 0.00900304 0)
(0.0929855 0.00964994 0)
(0.0898737 0.0145786 0)
(0.0916346 0.016278 0)
(0.100006 0.000150631 0)
(0.0995721 0.000390416 0)
(0.100745 0.000566779 0)
(0.100632 0.000752632 0)
(0.100114 0.000944887 0)
(0.100653 0.00107719 0)
(0.101164 0.00111568 0)
(0.10105 0.00108073 0)
(0.100865 0.0010127 0)
(0.100866 0.000946971 0)
(0.100865 0.000906225 0)
(0.10077 0.00090037 0)
(0.100631 0.000931322 0)
(0.100485 0.000999372 0)
(0.100321 0.00110526 0)
(0.100134 0.00125036 0)
(0.0999091 0.0014398 0)
(0.0996671 0.001677 0)
(0.0993491 0.00197709 0)
(0.099065 0.00233852 0)
(0.0985701 0.00280836 0)
(0.0983251 0.00334288 0)
(0.0974745 0.00411145 0)
(0.0974704 0.00485894 0)
(0.0960508 0.00621931 0)
(0.096442 0.00715986 0)
(0.094668 0.00960125 0)
(0.0950532 0.0109199 0)
(0.0941 0.0143803 0)
(0.0936974 0.0176358 0)
(0.100006 0.000121881 0)
(0.0995517 0.000333122 0)
(0.10069 0.000495215 0)
(0.100535 0.000664938 0)
(0.0999806 0.000848786 0)
(0.100497 0.000992254 0)
(0.101004 0.00105916 0)
(0.10091 0.00105938 0)
(0.100759 0.00102604 0)
(0.1008 0.000991136 0)
(0.100841 0.00097622 0)
(0.100787 0.000992541 0)
(0.100689 0.00104434 0)
(0.100582 0.0011333 0)
(0.100459 0.00126153 0)
(0.100315 0.00143187 0)
(0.100139 0.00164944 0)
(0.0999557 0.00191978 0)
(0.0997028 0.00225482 0)
(0.0995064 0.00266129 0)
(0.099104 0.00316745 0)
(0.098999 0.00376684 0)
(0.0982885 0.00454416 0)
(0.0984937 0.00540086 0)
(0.0973205 0.00664958 0)
(0.0979787 0.00779286 0)
(0.0966074 0.00983285 0)
(0.0974391 0.0113616 0)
(0.0966476 0.0143056 0)
(0.0976991 0.0165906 0)
(0.100006 9.31243e-05 0)
(0.0995347 0.000255875 0)
(0.100652 0.000376628 0)
(0.100475 0.0005114 0)
(0.099903 0.000677146 0)
(0.100408 0.00082931 0)
(0.100916 0.000927549 0)
(0.100834 0.000969898 0)
(0.100706 0.000979158 0)
(0.100776 0.00098211 0)
(0.100851 0.000999003 0)
(0.100832 0.00104163 0)
(0.10077 0.00111628 0)
(0.100702 0.00122628 0)
(0.10062 0.00137489 0)
(0.100522 0.00156626 0)
(0.100397 0.00180535 0)
(0.100273 0.00209983 0)
(0.10009 0.00245737 0)
(0.099978 0.00289327 0)
(0.0996768 0.00341409 0)
(0.099693 0.00405184 0)
(0.0991373 0.00480829 0)
(0.0995018 0.00571981 0)
(0.0985869 0.00684676 0)
(0.0993982 0.00807974 0)
(0.0985019 0.00974698 0)
(0.0993038 0.0114833 0)
(0.0994507 0.013484 0)
(0.0997797 0.0163488 0)
(0.100006 7.21096e-05 0)
(0.0995281 0.000202527 0)
(0.100633 0.000295707 0)
(0.100443 0.00040379 0)
(0.0998597 0.000550438 0)
(0.100358 0.000700518 0)
(0.100867 0.000813845 0)
(0.100796 0.000881883 0)
(0.100687 0.000920502 0)
(0.100782 0.000951738 0)
(0.100886 0.000994161 0)
(0.100899 0.00105915 0)
(0.100872 0.00115341 0)
(0.10084 0.00128109 0)
(0.100799 0.00144596 0)
(0.100746 0.0016529 0)
(0.100673 0.0019066 0)
(0.100608 0.00221573 0)
(0.100496 0.00258447 0)
(0.100463 0.00303353 0)
(0.100265 0.00355371 0)
(0.100383 0.00420223 0)
(0.0999854 0.00492219 0)
(0.100465 0.00584201 0)
(0.0997964 0.00684608 0)
(0.100724 0.00808742 0)
(0.100148 0.00946953 0)
(0.101124 0.0111504 0)
(0.101473 0.0128157 0)
(0.102273 0.0150448 0)
(0.100006 5.41937e-05 0)
(0.0995251 0.000154162 0)
(0.100624 0.000218829 0)
(0.100427 0.000298626 0)
(0.0998387 0.000423241 0)
(0.100336 0.000565932 0)
(0.100849 0.000688128 0)
(0.100789 0.000775782 0)
(0.100697 0.000838558 0)
(0.100815 0.000894441 0)
(0.100945 0.000959752 0)
(0.100987 0.00104482 0)
(0.10099 0.001156 0)
(0.100994 0.00129806 0)
(0.100991 0.00147521 0)
(0.100982 0.00169237 0)
(0.10096 0.00195367 0)
(0.100951 0.00226847 0)
(0.100908 0.00263817 0)
(0.100947 0.00308669 0)
(0.100849 0.00359323 0)
(0.10105 0.00423047 0)
(0.100808 0.00490375 0)
(0.101362 0.00579604 0)
(0.100932 0.006683 0)
(0.101907 0.00788234 0)
(0.101642 0.00900363 0)
(0.102644 0.0106396 0)
(0.103323 0.0118329 0)
(0.104054 0.0139993 0)
(0.100006 3.71427e-05 0)
(0.0995246 0.000108249 0)
(0.100623 0.00014558 0)
(0.100424 0.000197145 0)
(0.0998355 0.000297966 0)
(0.100336 0.000429204 0)
(0.100856 0.000554609 0)
(0.100808 0.000656378 0)
(0.100733 0.000738814 0)
(0.10087 0.00081555 0)
(0.101023 0.000900256 0)
(0.101091 0.00100212 0)
(0.101123 0.0011271 0)
(0.101159 0.00128003 0)
(0.101193 0.0014649 0)
(0.101224 0.0016865 0)
(0.101249 0.00194887 0)
(0.101293 0.00226136 0)
(0.101314 0.0026233 0)
(0.101417 0.00305924 0)
(0.101412 0.0035424 0)
(0.10168 0.0041502 0)
(0.101582 0.00477225 0)
(0.102185 0.00560885 0)
(0.101967 0.00639163 0)
(0.102962 0.0075028 0)
(0.102937 0.00842715 0)
(0.103986 0.00991534 0)
(0.104799 0.0108587 0)
(0.105667 0.0126538 0)
(0.100006 1.99718e-05 0)
(0.0995263 6.18569e-05 0)
(0.100627 7.20579e-05 0)
(0.100431 9.4617e-05 0)
(0.0998465 0.000168989 0)
(0.100354 0.000284985 0)
(0.100885 0.00040984 0)
(0.100851 0.000522374 0)
(0.100791 0.000621526 0)
(0.100946 0.000716298 0)
(0.101119 0.0008179 0)
(0.101209 0.000934083 0)
(0.101267 0.00106984 0)
(0.101331 0.00122968 0)
(0.101398 0.00141764 0)
(0.101466 0.00163859 0)
(0.101534 0.00189621 0)
(0.101625 0.00219927 0)
(0.101706 0.00254577 0)
(0.101864 0.00295957 0)
(0.101944 0.00341154 0)
(0.102265 0.0039776 0)
(0.102297 0.00454386 0)
(0.102926 0.00530897 0)
(0.102898 0.00599382 0)
(0.103883 0.00699844 0)
(0.104061 0.00775284 0)
(0.105118 0.00908899 0)
(0.106039 0.00979479 0)
(0.106961 0.0113507 0)
(0.100005 1.86924e-06 0)
(0.0995299 1.27877e-05 0)
(0.100636 -5.36156e-06 0)
(0.100448 -1.27576e-05 0)
(0.0998713 3.39485e-05 0)
(0.100389 0.000132677 0)
(0.100934 0.000254736 0)
(0.100914 0.00037549 0)
(0.100869 0.000489201 0)
(0.10104 0.00060031 0)
(0.101229 0.000716726 0)
(0.101338 0.000844389 0)
(0.101417 0.000987615 0)
(0.101506 0.00115071 0)
(0.101602 0.00133762 0)
(0.101703 0.00155312 0)
(0.101809 0.00180046 0)
(0.101942 0.00208763 0)
(0.102075 0.00241234 0)
(0.102281 0.00279649 0)
(0.102436 0.00321162 0)
(0.102798 0.00372692 0)
(0.102944 0.00423555 0)
(0.103584 0.00491807 0)
(0.103718 0.00551454 0)
(0.104679 0.0063975 0)
(0.105019 0.00701795 0)
(0.106072 0.00817851 0)
(0.107047 0.00872114 0)
(0.108029 0.0100125 0)
(0.100006 -1.89467e-05 0)
(0.0995355 -4.41138e-05 0)
(0.100652 -9.37073e-05 0)
(0.100477 -0.000133881 0)
(0.0999138 -0.000118755 0)
(0.100446 -4.06687e-05 0)
(0.101005 7.69488e-05 0)
(0.101 0.000207906 0)
(0.100967 0.00033866 0)
(0.10115 0.000467439 0)
(0.101353 0.00059836 0)
(0.101476 0.000735918 0)
(0.101572 0.000884143 0)
(0.101681 0.00104723 0)
(0.1018 0.00122914 0)
(0.101929 0.00143458 0)
(0.102069 0.00166674 0)
(0.102237 0.00193281 0)
(0.102415 0.00223058 0)
(0.102662 0.0025793 0)
(0.102881 0.00295295 0)
(0.103275 0.00341172 0)
(0.103517 0.00386132 0)
(0.104159 0.00445655 0)
(0.10443 0.00497168 0)
(0.105356 0.00572837 0)
(0.105827 0.0062397 0)
(0.106863 0.00722335 0)
(0.107867 0.00763854 0)
(0.108887 0.0086998 0)
(0.100006 -4.31016e-05 0)
(0.0995442 -0.000106431 0)
(0.100676 -0.000185195 0)
(0.100519 -0.00025566 0)
(0.0999743 -0.000270731 0)
(0.100526 -0.00021125 0)
(0.101105 -9.52077e-05 0)
(0.101115 4.66623e-05 0)
(0.101092 0.000192121 0)
(0.101281 0.00033388 0)
(0.10149 0.00047448 0)
(0.101621 0.000617453 0)
(0.101728 0.000766342 0)
(0.101851 0.000925074 0)
(0.101989 0.0010976 0)
(0.10214 0.00128851 0)
(0.102308 0.00150088 0)
(0.102506 0.00174131 0)
(0.102722 0.0020078 0)
(0.103002 0.0023167 0)
(0.103274 0.00264548 0)
(0.103693 0.00304436 0)
(0.104016 0.00343408 0)
(0.104653 0.00394106 0)
(0.105035 0.00437989 0)
(0.105923 0.00501233 0)
(0.106496 0.00543304 0)
(0.107508 0.00624477 0)
(0.108522 0.00656486 0)
(0.109565 0.0074166 0)
(0.100006 -7.83326e-05 0)
(0.099564 -0.000203159 0)
(0.100722 -0.00032854 0)
(0.100593 -0.000441606 0)
(0.100072 -0.000492569 0)
(0.100645 -0.000448603 0)
(0.10124 -0.000325271 0)
(0.101256 -0.000163642 0)
(0.101233 6.15689e-06 0)
(0.10142 0.000172483 0)
(0.101631 0.000332708 0)
(0.101766 0.000485377 0)
(0.101879 0.000634909 0)
(0.102012 0.000787103 0)
(0.102163 0.000947034 0)
(0.102332 0.00111973 0)
(0.102522 0.00130848 0)
(0.102744 0.00151941 0)
(0.102991 0.00175104 0)
(0.103297 0.00201684 0)
(0.103614 0.00229822 0)
(0.104051 0.0026356 0)
(0.104438 0.002965 0)
(0.105068 0.00338554 0)
(0.105539 0.00375133 0)
(0.106391 0.00426618 0)
(0.107041 0.00460779 0)
(0.108027 0.00526041 0)
(0.109039 0.00550506 0)
(0.110091 0.00617357 0)
(0.100005 -0.00011201 0)
(0.0995871 -0.000275799 0)
(0.100784 -0.000419472 0)
(0.100697 -0.000555513 0)
(0.100217 -0.000632339 0)
(0.100823 -0.000602793 0)
(0.101436 -0.000478066 0)
(0.101455 -0.00030387 0)
(0.101425 -0.000117213 0)
(0.101603 6.1365e-05 0)
(0.1018 0.000222085 0)
(0.101922 0.000368059 0)
(0.102029 0.000506779 0)
(0.102163 0.000644274 0)
(0.102321 0.000785345 0)
(0.102502 0.000934768 0)
(0.102707 0.00109575 0)
(0.102948 0.00127355 0)
(0.10322 0.00146721 0)
(0.103547 0.00168739 0)
(0.103898 0.00191948 0)
(0.104348 0.00219462 0)
(0.104786 0.00246357 0)
(0.105408 0.00280059 0)
(0.105947 0.00309605 0)
(0.106766 0.00350152 0)
(0.107474 0.00377117 0)
(0.108432 0.00427987 0)
(0.109437 0.00446228 0)
(0.110489 0.0049722 0)
(0.100007 -0.000216011 0)
(0.0996487 -0.000511258 0)
(0.100902 -0.000723572 0)
(0.100868 -0.000921604 0)
(0.10043 -0.00102889 0)
(0.101057 -0.000976757 0)
(0.10167 -0.000797582 0)
(0.101673 -0.000560097 0)
(0.101618 -0.000316562 0)
(0.101765 -9.99704e-05 0)
(0.101938 8.08697e-05 0)
(0.10205 0.000234827 0)
(0.102155 0.000369256 0)
(0.10229 0.000492934 0)
(0.102454 0.000613355 0)
(0.102643 0.000736693 0)
(0.10286 0.000866964 0)
(0.103115 0.00100888 0)
(0.103405 0.00116214 0)
(0.103748 0.00133489 0)
(0.104125 0.00151651 0)
(0.104586 0.00172941 0)
(0.105061 0.00193827 0)
(0.105676 0.00219468 0)
(0.106265 0.00242239 0)
(0.107055 0.00272589 0)
(0.107806 0.00292971 0)
(0.108739 0.00330746 0)
(0.109734 0.00343657 0)
(0.11078 0.00380974 0)
(0.100003 -0.000255883 0)
(0.0997952 -0.000553083 0)
(0.101165 -0.000763154 0)
(0.101223 -0.000981167 0)
(0.100869 -0.00108874 0)
(0.101527 -0.00102114 0)
(0.102111 -0.000826139 0)
(0.102054 -0.000577913 0)
(0.101928 -0.000335029 0)
(0.102009 -0.000132125 0)
(0.10213 2.80998e-05 0)
(0.102202 0.000153807 0)
(0.102278 0.000258685 0)
(0.102398 0.000352756 0)
(0.102557 0.000442555 0)
(0.102747 0.000533296 0)
(0.102972 0.000628372 0)
(0.103236 0.000731229 0)
(0.103539 0.000841846 0)
(0.103894 0.000965546 0)
(0.10429 0.00109587 0)
(0.104758 0.00124617 0)
(0.10526 0.00139613 0)
(0.105869 0.00157325 0)
(0.106494 0.001738 0)
(0.107263 0.00194312 0)
(0.108041 0.00208839 0)
(0.108955 0.00234508 0)
(0.109939 0.00242613 0)
(0.110981 0.00267646 0)
(0.0999998 -0.000754603 0)
(0.099924 -0.00122166 0)
(0.101333 -0.0014426 0)
(0.101361 -0.00175454 0)
(0.100932 -0.00179947 0)
(0.10148 -0.00155962 0)
(0.101956 -0.00120549 0)
(0.101816 -0.0008196 0)
(0.101633 -0.000467435 0)
(0.101676 -0.000209507 0)
(0.101775 -4.51672e-05 0)
(0.101841 6.19509e-05 0)
(0.101924 0.000142157 0)
(0.102053 0.000207587 0)
(0.102221 0.000265537 0)
(0.102422 0.000321785 0)
(0.102658 0.00037968 0)
(0.102935 0.000441746 0)
(0.103254 0.000508208 0)
(0.103624 0.000582094 0)
(0.104039 0.000660038 0)
(0.104522 0.000748566 0)
(0.105046 0.000838698 0)
(0.105673 0.0009398 0)
(0.106309 0.00104185 0)
(0.107113 0.00115286 0)
(0.107859 0.00124728 0)
(0.108855 0.00138254 0)
(0.10973 0.00143526 0)
(0.110905 0.00155751 0)
(0.0989164 -0.000645018 0)
(0.0982258 -0.000997556 0)
(0.0981966 -0.00121329 0)
(0.0961279 -0.00146546 0)
(0.0937145 -0.00144302 0)
(0.092548 -0.00119102 0)
(0.0916307 -0.000874881 0)
(0.0905708 -0.000564988 0)
(0.0898823 -0.000311368 0)
(0.0896542 -0.000147462 0)
(0.0896096 -5.57773e-05 0)
(0.0896077 2.29288e-07 0)
(0.0896585 3.8072e-05 0)
(0.0897707 6.45802e-05 0)
(0.0899292 8.52021e-05 0)
(0.0901245 0.000103854 0)
(0.0903562 0.000122478 0)
(0.0906275 0.000142196 0)
(0.0909401 0.000163178 0)
(0.0912999 0.000186407 0)
(0.0917064 0.000210795 0)
(0.0921725 0.000238394 0)
(0.0926851 0.000266266 0)
(0.0932813 0.000297011 0)
(0.0939027 0.000328651 0)
(0.0946609 0.000360037 0)
(0.0953787 0.000391727 0)
(0.0963183 0.000424164 0)
(0.0971285 0.000445857 0)
(0.0982339 0.000466066 0)
(0.0475927 0.0166063 0)
(0.0693371 0.0279192 0)
(0.0692359 0.0217394 0)
(0.0861455 0.0501621 1.23892e-21)
(0.0687193 0.0125852 9.79098e-22)
(0.118968 0.0604006 0)
(0.0568061 0.0318637 4.02948e-22)
(0.144281 0.0410604 2.33324e-22)
(0.0950193 0.0457565 5.80477e-22)
(0.133881 0.0529447 0)
(0.0725414 0.0238477 0)
(0.0891427 0.0337849 0)
(0.0841869 0.0353161 0)
(0.0981829 0.0397875 0)
(0.104489 0.0479364 0)
(0.0953774 0.0493511 3.30416e-22)
(0.127288 0.0445037 1.38411e-22)
(0.129357 0.0551936 3.16494e-23)
(0.11925 0.069965 -5.03636e-22)
(0.143901 0.0383806 -5.90767e-22)
(0.084313 0.0217872 0)
(0.0862806 0.0301509 0)
(0.0973343 0.0253769 0)
(0.0941755 0.0375114 0)
(0.105678 0.0350658 0)
(0.110757 0.0351853 -3.30415e-22)
(0.12154 0.041954 -1.38417e-22)
(0.118662 0.0306379 -3.16558e-23)
(0.139914 0.0620438 2.62191e-22)
(0.165478 0.0156388 5.90678e-22)
(0.0880891 0.0233408 -6.02883e-22)
(0.0958703 0.0256458 0)
(0.0977846 0.0317417 -4.99403e-22)
(0.101983 0.0321782 -4.39452e-22)
(0.110629 0.035817 -3.56537e-22)
(0.111643 0.0398521 0)
(0.123822 0.0401848 0)
(0.12464 0.0328614 -3.81715e-24)
(0.13884 0.0449555 1.26671e-22)
(0.156365 0.0331787 3.34391e-22)
(0.0950386 0.0201009 6.02886e-22)
(0.0966286 0.0262858 0)
(0.102129 0.0240808 4.99405e-22)
(0.105187 0.0299491 4.39454e-22)
(0.110596 0.0313248 3.56539e-22)
(0.115685 0.0271732 0)
(0.124478 0.0333138 0)
(0.129335 0.027544 3.81717e-24)
(0.136237 0.0328202 -1.26672e-22)
(0.148073 0.0129102 -3.34406e-22)
(0.0974674 0.0204276 0)
(0.101154 0.0219333 -4.82517e-22)
(0.105158 0.0252819 0)
(0.107703 0.0266103 -3.80361e-22)
(0.11455 0.027373 0)
(0.117902 0.0299822 0)
(0.124271 0.0293929 0)
(0.1291 0.024862 3.56148e-23)
(0.137299 0.0281495 0)
(0.143776 0.0203534 0)
(0.101227 0.0179771 4.81076e-22)
(0.103405 0.0212012 9.35194e-22)
(0.106824 0.0214981 4.0884e-22)
(0.11079 0.0231957 3.80362e-22)
(0.11456 0.0248911 0)
(0.11913 0.0222492 -2.27182e-22)
(0.125377 0.0242734 0)
(0.129526 0.0206112 -3.5615e-23)
(0.134027 0.0194849 0)
(0.14035 0.0108009 0)
(0.103403 0.0170906 -4.81078e-22)
(0.105714 0.0184761 -4.52677e-22)
(0.109213 0.0198715 -4.08842e-22)
(0.112045 0.0209979 0)
(0.116529 0.0210049 0)
(0.120233 0.0217537 2.27182e-22)
(0.124871 0.0209781 0)
(0.12884 0.0181516 0)
(0.133618 0.0172491 0)
(0.136435 0.0122946 0)
(0.105504 0.0152402 0)
(0.107599 0.0167497 -4.0603e-22)
(0.110332 0.0175378 0)
(0.11363 0.0178952 -3.27533e-22)
(0.11696 0.0186708 0)
(0.120575 0.0175437 0)
(0.124787 0.0172091 -1.619e-22)
(0.128018 0.0146965 -9.86438e-23)
(0.131285 0.0126752 0)
(0.134243 0.00777216 1.51886e-23)
(0.107115 0.0137897 0)
(0.109017 0.0147756 4.06031e-22)
(0.111655 0.0154146 0)
(0.114458 0.0158715 3.27534e-22)
(0.117726 0.0158776 0)
(0.120844 0.0156045 0)
(0.124213 0.014675 1.61901e-22)
(0.127018 0.0126184 9.8644e-23)
(0.130096 0.0108624 0)
(0.131739 0.00758205 -1.51886e-23)
(0.108415 0.012191 1.96669e-22)
(0.110215 0.012961 0)
(0.112451 0.0134535 0)
(0.115175 0.0135532 1.5436e-22)
(0.118003 0.0136599 0)
(0.120738 0.0129417 0)
(0.123644 0.0120455 0)
(0.126055 0.0102359 6.60727e-23)
(0.128402 0.00840451 0)
(0.129997 0.00531364 0)
(0.109459 0.0106836 -6.67127e-24)
(0.11111 0.0112438 0)
(0.113159 0.0115698 1.6778e-22)
(0.115614 0.0116898 -3.00328e-24)
(0.118189 0.0115375 0)
(0.120591 0.0109803 0)
(0.123021 0.0100787 9.37989e-23)
(0.125094 0.00854991 -6.60728e-23)
(0.12719 0.00695969 5.31431e-23)
(0.128338 0.0046651 3.52269e-23)
(0.11027 0.00921258 -5.40113e-24)
(0.11182 0.00960775 0)
(0.113656 0.0098556 -3.63871e-24)
(0.115907 0.00986396 -2.08309e-24)
(0.118197 0.00966911 1.32697e-22)
(0.120307 0.00906299 -1.15482e-22)
(0.122409 0.00821318 3.87916e-24)
(0.124232 0.00690542 7.91005e-23)
(0.125968 0.00547895 8.10187e-24)
(0.127028 0.00346336 9.8842e-24)
(0.110901 0.00780398 -1.84597e-22)
(0.112355 0.00807936 0)
(0.114041 0.00824965 -1.64142e-22)
(0.116075 0.00823009 -1.49275e-22)
(0.118126 0.00797518 -1.32698e-22)
(0.120012 0.00743228 2.32651e-22)
(0.12184 0.0066779 -9.76783e-23)
(0.123452 0.00558252 -7.91006e-23)
(0.124981 0.00437333 -6.12451e-23)
(0.125888 0.00278763 -4.51113e-23)
(0.111377 0.00645893 0)
(0.112758 0.00664021 0)
(0.114315 0.00675948 0)
(0.116156 0.00670019 0)
(0.117996 0.00643718 0)
(0.119698 0.00594343 -1.17169e-22)
(0.121324 0.00527917 0)
(0.122778 0.00437173 0)
(0.124118 0.00335416 0)
(0.124964 0.00204747 0)
(0.111727 0.00517569 0)
(0.11305 0.00528879 0)
(0.114505 0.00536115 0)
(0.116174 0.00528388 0)
(0.117842 0.00503087 0)
(0.119403 0.00460973 -6.0202e-23)
(0.120875 0.00405314 0)
(0.122205 0.00332108 0)
(0.123414 0.0024958 0)
(0.124205 0.00147216 0)
(0.111975 0.003946 0)
(0.113249 0.00400846 0)
(0.114624 0.00404094 7.82277e-23)
(0.116151 0.00395333 0)
(0.117688 0.00372019 6.71293e-23)
(0.119135 0.00337463 6.0202e-23)
(0.120499 0.00291709 0)
(0.121728 0.00234721 4.7694e-23)
(0.122844 0.0016972 0)
(0.123595 0.000915762 0)
(0.112133 0.00275876 0)
(0.113359 0.0027857 0)
(0.114663 0.00278554 -7.82278e-23)
(0.116057 0.00270467 0)
(0.117498 0.00250128 -6.71294e-23)
(0.118828 0.00223819 0)
(0.120135 0.00189057 0)
(0.121236 0.0014692 -4.7694e-23)
(0.122313 0.000993155 0)
(0.122965 0.000438932 0)
(0.111898 0.00159451 -2.13709e-23)
(0.112957 0.00158706 -2.05043e-23)
(0.1141 0.00155089 -1.94865e-23)
(0.11526 0.0014676 0)
(0.116553 0.00129531 -1.69708e-23)
(0.117622 0.00109988 0)
(0.118851 0.000839534 -1.40224e-23)
(0.119585 0.000574116 0)
(0.120629 0.00023298 -1.08825e-23)
(0.120821 -9.51895e-05 -9.35282e-24)
(0.0991155 0.000454552 2.13686e-23)
(0.0999736 0.000412593 2.0502e-23)
(0.100818 0.000354486 1.94842e-23)
(0.101594 0.000269493 0)
(0.102357 0.000154297 1.69686e-23)
(0.102818 3.33816e-05 0)
(0.103248 -9.90389e-05 1.40203e-23)
(0.103169 -0.00020533 0)
(0.103196 -0.000367229 1.08806e-23)
(0.102373 -0.000460841 9.35115e-24)
(-0.0107374 -0.00550362 0)
(-0.0345167 0.00343979 0)
(-0.0579926 0.00395566 0)
(-0.0636127 -0.000627905 0)
(-0.0467133 -0.00676221 0)
(-0.0221014 -0.0074612 0)
(0.00129927 -0.00674638 0)
(0.020841 -0.00527395 0)
(0.0361112 -0.00384081 0)
(0.0473599 -0.00266725 0)
(0.055478 -0.0018042 0)
(0.061261 -0.0012094 0)
(0.0653824 -0.000818174 0)
(0.0683535 -0.000566819 0)
(0.0705362 -0.000405255 0)
(0.0721755 -0.000299444 0)
(0.0734336 -0.000228079 0)
(0.0744179 -0.000178209 0)
(0.0752005 -0.000142063 0)
(0.0758312 -0.000115012 0)
(0.0763448 -9.42002e-05 0)
(0.0767666 -7.77859e-05 0)
(0.0771153 -6.45963e-05 0)
(0.0774048 -5.38909e-05 0)
(0.0776463 -4.51365e-05 0)
(0.0778483 -3.7913e-05 0)
(0.0780179 -3.19035e-05 0)
(0.0781606 -2.68895e-05 0)
(0.0782808 -2.26836e-05 0)
(0.0783823 -1.91554e-05 0)
(0.0784679 -1.61842e-05 0)
(0.0785403 -1.36845e-05 0)
(0.0786014 -1.16574e-05 0)
(0.0786537 -9.78362e-06 0)
(0.0786969 -8.6062e-06 0)
(0.0787365 -6.89386e-06 0)
(0.0787645 -6.55048e-06 0)
(0.0787988 -4.9737e-06 0)
(0.078812 -4.9631e-06 0)
(0.0788465 -4.20555e-06 0)
(-0.000467284 0.0361505 0)
(-0.0311057 0.0298492 0)
(-0.0649843 0.0209374 0)
(-0.0711738 -0.00529246 0)
(-0.0481752 -0.0241058 0)
(-0.0188191 -0.0268053 0)
(0.00715116 -0.0242057 0)
(0.0286825 -0.0194951 0)
(0.0456679 -0.0149135 0)
(0.0585627 -0.0110356 0)
(0.0682062 -0.00802144 0)
(0.0753631 -0.00579928 0)
(0.0806847 -0.00421606 0)
(0.0846784 -0.00310639 0)
(0.0877164 -0.0023294 0)
(0.090062 -0.00177988 0)
(0.0918992 -0.00138468 0)
(0.0933573 -0.00109461 0)
(0.0945277 -0.000877091 0)
(0.0954765 -0.000710674 0)
(0.0962518 -0.00058106 0)
(0.0968899 -0.000478498 0)
(0.0974177 -0.000396271 0)
(0.0978564 -0.000329696 0)
(0.0982223 -0.000275363 0)
(0.0985286 -0.000230696 0)
(0.0987855 -0.000193741 0)
(0.0990017 -0.000163027 0)
(0.0991837 -0.000137407 0)
(0.0993375 -0.000115952 0)
(0.0994671 -9.80306e-05 0)
(0.0995771 -8.27724e-05 0)
(0.0996694 -7.05233e-05 0)
(0.0997492 -5.89415e-05 0)
(0.0998137 -5.16315e-05 0)
(0.0998747 -4.14765e-05 0)
(0.0999155 -3.83568e-05 0)
(0.0999681 -2.97033e-05 0)
(0.0999872 -2.82825e-05 0)
(0.100038 -2.2258e-05 0)
(-0.0131129 0.0212365 0)
(-0.0388647 0.0430037 0)
(-0.0774883 0.0374649 0)
(-0.0756288 -0.0117744 0)
(-0.0450715 -0.0475267 0)
(-0.0107185 -0.0476598 0)
(0.0148119 -0.0414826 0)
(0.0342653 -0.0329382 0)
(0.0494515 -0.0251572 0)
(0.0612181 -0.0187072 0)
(0.0701548 -0.0137312 0)
(0.0768658 -0.0100697 0)
(0.081923 -0.00744539 0)
(0.0857814 -0.00558044 0)
(0.0887691 -0.00424978 0)
(0.0911144 -0.00328903 0)
(0.0929773 -0.00258411 0)
(0.0944725 -0.00205759 0)
(0.0956831 -0.00165716 0)
(0.0966706 -0.0013474 0)
(0.0974815 -0.00110415 0)
(0.0981511 -0.000910624 0)
(0.0987066 -0.000754944 0)
(0.099169 -0.000628564 0)
(0.0995553 -0.000525197 0)
(0.0998789 -0.000440103 0)
(0.100151 -0.000369665 0)
(0.10038 -0.000311099 0)
(0.100572 -0.000262254 0)
(0.100735 -0.000221343 0)
(0.100873 -0.0001872 0)
(0.100989 -0.000158088 0)
(0.101087 -0.000134686 0)
(0.101172 -0.000112589 0)
(0.10124 -9.84417e-05 0)
(0.101305 -7.92885e-05 0)
(0.101348 -7.28763e-05 0)
(0.101404 -5.66628e-05 0)
(0.101424 -5.36528e-05 0)
(0.101478 -4.14522e-05 0)
(-0.00920549 0.0643148 0)
(-0.0384485 0.0771005 0)
(-0.0763756 0.0494241 0)
(-0.0580571 -0.0270784 0)
(-0.0289544 -0.0743977 0)
(0.0125371 -0.0703008 0)
(0.0361076 -0.0561605 0)
(0.0496766 -0.0439714 0)
(0.0592512 -0.0340086 0)
(0.0674419 -0.0256355 0)
(0.0742661 -0.0189813 0)
(0.0796724 -0.0140225 0)
(0.083876 -0.0104536 0)
(0.0871609 -0.00790663 0)
(0.0897602 -0.00607618 0)
(0.0918415 -0.00474146 0)
(0.0935238 -0.00375108 0)
(0.094894 -0.00300311 0)
(0.0960169 -0.00242874 0)
(0.0969419 -0.00198087 0)
(0.0977073 -0.00162692 0)
(0.0983432 -0.00134399 0)
(0.0988732 -0.00111561 0)
(0.0993161 -0.000929722 0)
(0.0996872 -0.000777349 0)
(0.0999989 -0.000651715 0)
(0.100261 -0.000547622 0)
(0.100482 -0.000461018 0)
(0.100669 -0.000388759 0)
(0.100827 -0.000328205 0)
(0.10096 -0.000277656 0)
(0.101073 -0.000234513 0)
(0.101168 -0.000199804 0)
(0.101251 -0.000167068 0)
(0.101317 -0.000145934 0)
(0.10138 -0.000117772 0)
(0.101422 -0.000107872 0)
(0.101476 -8.40548e-05 0)
(0.101496 -7.93897e-05 0)
(0.101548 -6.07243e-05 0)
(-0.0129505 0.0694805 0)
(-0.0100446 0.0778938 0)
(-0.0491611 0.0577077 0)
(-0.0145465 -0.0505105 0)
(0.0029325 -0.103079 0)
(0.037137 -0.0971643 0)
(0.0625619 -0.0683376 0)
(0.0726026 -0.0487626 0)
(0.0750361 -0.0376803 0)
(0.0772128 -0.0294451 0)
(0.0802712 -0.0224795 0)
(0.0835042 -0.0169432 0)
(0.0864375 -0.0128107 0)
(0.0889416 -0.00980095 0)
(0.0910361 -0.00760699 0)
(0.0927784 -0.00598753 0)
(0.0942264 -0.00477197 0)
(0.0954306 -0.00384385 0)
(0.0964335 -0.00312403 0)
(0.0972699 -0.00255793 0)
(0.0979688 -0.00210734 0)
(0.0985538 -0.00174505 0)
(0.0990444 -0.00145125 0)
(0.0994565 -0.00121121 0)
(0.099803 -0.00101388 0)
(0.100095 -0.000850807 0)
(0.100341 -0.000715465 0)
(0.10055 -0.00060271 0)
(0.100725 -0.00050852 0)
(0.100875 -0.000429505 0)
(0.101 -0.000363485 0)
(0.101108 -0.000307096 0)
(0.101197 -0.00026167 0)
(0.101276 -0.000218893 0)
(0.101338 -0.000191105 0)
(0.101399 -0.000154416 0)
(0.101438 -0.000141195 0)
(0.10149 -0.00011009 0)
(0.101508 -0.000103847 0)
(0.101557 -7.89501e-05 0)
(0.0844019 0.0642993 0)
(0.0234322 0.101373 0)
(0.0119072 0.0611384 0)
(0.0559433 -0.0614341 0)
(0.0637368 -0.115289 0)
(0.0566985 -0.116804 0)
(0.0697953 -0.0849458 0)
(0.083656 -0.053972 0)
(0.0878412 -0.0372107 0)
(0.0875586 -0.028854 0)
(0.0873142 -0.0229914 0)
(0.0880609 -0.0180981 0)
(0.0894415 -0.0141399 0)
(0.0910112 -0.0110811 0)
(0.0925214 -0.00875722 0)
(0.0938776 -0.00698809 0)
(0.0950589 -0.00562788 0)
(0.0960728 -0.0045695 0)
(0.0969364 -0.00373638 0)
(0.0976689 -0.0030736 0)
(0.0982887 -0.00254131 0)
(0.0988126 -0.00211033 0)
(0.0992554 -0.00175889 0)
(0.0996296 -0.00147054 0)
(0.0999459 -0.00123269 0)
(0.100213 -0.00103561 0)
(0.10044 -0.000871687 0)
(0.100632 -0.000734878 0)
(0.100794 -0.00062043 0)
(0.100932 -0.000524305 0)
(0.101049 -0.000443906 0)
(0.101149 -0.000375182 0)
(0.101232 -0.000319751 0)
(0.101305 -0.0002676 0)
(0.101363 -0.000233564 0)
(0.101419 -0.000188878 0)
(0.101456 -0.000172518 0)
(0.101504 -0.000134541 0)
(0.101521 -0.00012681 0)
(0.101567 -9.60499e-05 0)
(0.019368 0.00852078 0)
(0.0246742 0.117938 0)
(0.0778569 0.0381772 0)
(0.12322 -0.0776222 0)
(0.126635 -0.104561 0)
(0.0896733 -0.0979629 0)
(0.0651882 -0.0848136 0)
(0.0694483 -0.0614718 0)
(0.0804688 -0.0416986 0)
(0.0876126 -0.0300826 0)
(0.0903843 -0.0234015 0)
(0.0913238 -0.0188067 0)
(0.0920648 -0.0151283 0)
(0.0929907 -0.0121122 0)
(0.0940193 -0.00970456 0)
(0.09503 -0.00781878 0)
(0.0959586 -0.00634488 0)
(0.0967834 -0.00518455 0)
(0.0975027 -0.00426204 0)
(0.0981239 -0.00352165 0)
(0.0986571 -0.00292244 0)
(0.0991129 -0.00243404 0)
(0.0995015 -0.0020336 0)
(0.0998324 -0.00170355 0)
(0.100114 -0.00143031 0)
(0.100353 -0.00120321 0)
(0.100556 -0.00101385 0)
(0.100729 -0.000855495 0)
(0.100876 -0.000722807 0)
(0.101001 -0.000611204 0)
(0.101107 -0.000517743 0)
(0.101197 -0.000437783 0)
(0.101273 -0.000373214 0)
(0.101339 -0.000312475 0)
(0.101393 -0.000272701 0)
(0.101444 -0.000220659 0)
(0.101477 -0.00020141 0)
(0.101521 -0.000157094 0)
(0.101537 -0.000147989 0)
(0.101578 -0.000111806 0)
(0.158868 0.0256022 0)
(0.112682 0.071248 0)
(0.169051 0.00615868 0)
(0.180028 -0.0908132 0)
(0.147107 -0.100582 0)
(0.114166 -0.0698029 0)
(0.0824782 -0.0622813 0)
(0.0683836 -0.0597213 0)
(0.0712698 -0.0479306 0)
(0.0806771 -0.03423 0)
(0.0883252 -0.0243027 0)
(0.0922989 -0.018345 0)
(0.0940757 -0.0146914 0)
(0.0949947 -0.0120895 0)
(0.0956812 -0.0100055 0)
(0.0963333 -0.00827461 0)
(0.0969746 -0.00683943 0)
(0.0975836 -0.00565889 0)
(0.0981412 -0.00469213 0)
(0.098639 -0.00390086 0)
(0.0990762 -0.00325191 0)
(0.0994562 -0.00271799 0)
(0.0997843 -0.00227712 0)
(0.100066 -0.0019118 0)
(0.100308 -0.00160807 0)
(0.100515 -0.00135476 0)
(0.100692 -0.00114296 0)
(0.100843 -0.000965442 0)
(0.100971 -0.000816402 0)
(0.101081 -0.000690841 0)
(0.101174 -0.000585549 0)
(0.101254 -0.000495371 0)
(0.101321 -0.000422464 0)
(0.10138 -0.00035386 0)
(0.101427 -0.000308828 0)
(0.101472 -0.000250022 0)
(0.101502 -0.000228117 0)
(0.101541 -0.000177945 0)
(0.101555 -0.000167558 0)
(0.101592 -0.000126359 0)
(0.188961 0.0209103 0)
(0.160521 0.0767799 0)
(0.209368 0.0103244 0)
(0.188955 -0.0573175 0)
(0.124311 -0.0677687 0)
(0.114134 -0.0582747 0)
(0.125669 -0.0524799 0)
(0.118497 -0.0521328 0)
(0.102642 -0.0502949 0)
(0.0943138 -0.0424381 0)
(0.0926603 -0.0322914 0)
(0.0934495 -0.0236906 0)
(0.0946562 -0.0176699 0)
(0.0957355 -0.0136632 0)
(0.0966046 -0.0109014 0)