/*--------------------------------*- C++ -*----------------------------------*\
| =========                 |                                                 |
| \\      /  F ield         | OpenFOAM: The Open Source CFD Toolbox           |
|  \\    /   O peration     | Version:  2112                                  |
|   \\  /    A nd           | Website:  www.openfoam.com                      |
|    \\/     M anipulation  |                                                 |
\*---------------------------------------------------------------------------*/
FoamFile
{
    version     2.0;
    format      ascii;
    arch        "LSB;label=32;scalar=64";
    class       volScalarField;
    location    "0.23";
    object      nut;
}
// * * * * * * * * * * * * * * * * * * * * * * * * * * * * * * * * * * * * * //

dimensions      [0 2 -1 0 0 0 0];

internalField   nonuniform List<scalar> 
1880
(
3.54844e-11
4.92327e-12
2.30395e-13
1.95007e-14
7.318e-14
1.07989e-13
8.88383e-16
2.29191e-14
1.57836e-14
5.62686e-14
1.13282e-13
2.21389e-13
5.28656e-14
2.49075e-13
2.80962e-13
2.03837e-13
6.59642e-14
7.74953e-13
2.5916e-13
1.37932e-12
8.98747e-13
1.46698e-12
1.08547e-11
1.30823e-12
3.34629e-11
5.98096e-12
9.21313e-12
6.42795e-10
3.72848e-11
1.78545e-09
4.876e-09
5.85485e-09
1.00689e-09
2.21037e-10
9.59588e-11
2.48593e-11
1.68969e-11
7.20717e-12
6.56522e-12
1.68881e-11
7.45413e-11
1.19884e-11
8.4382e-12
5.00552e-12
1.84714e-11
8.65271e-12
7.92516e-13
4.56922e-12
1.04335e-11
1.30927e-11
5.34472e-12
5.49756e-12
5.43331e-11
2.39867e-10
7.34093e-10
3.13457e-09
4.91982e-09
5.69752e-09
2.26839e-08
2.36639e-08
1.5879e-09
2.13183e-09
8.08655e-10
6.11984e-10
7.03154e-10
1.93297e-09
2.00043e-09
2.61945e-09
2.07306e-09
4.1044e-09
1.2328e-09
1.97148e-09
2.0211e-10
2.64598e-10
7.44078e-10
6.77208e-11
1.25984e-09
3.03587e-12
9.45367e-11
1.63314e-09
5.15011e-11
4.86796e-09
5.06263e-09
2.96244e-09
1.91178e-08
9.7909e-09
1.53474e-08
4.39658e-08
1.10828e-08
5.6635e-08
1.27282e-12
1.69807e-11
3.46174e-10
9.80306e-10
9.03372e-10
1.46363e-09
1.77374e-09
1.82303e-09
3.48677e-12
1.47858e-08
5.20513e-09
2.33138e-08
7.57685e-10
1.97306e-08
2.23672e-09
4.90234e-09
6.33807e-09
8.06996e-09
1.35865e-09
5.51258e-09
4.33444e-09
6.57715e-09
1.12693e-08
1.37927e-08
1.84315e-08
1.793e-08
2.32687e-08
2.68286e-08
2.82272e-08
3.55685e-08
9.8505e-12
4.6194e-10
5.87728e-10
2.80368e-10
3.20002e-10
1.21594e-09
7.98025e-10
6.35855e-12
2.43399e-09
4.03552e-09
1.31756e-09
7.03585e-09
6.61031e-09
1.36056e-08
5.67531e-09
5.52586e-09
1.11844e-08
1.01474e-08
8.33349e-09
3.2941e-09
7.37623e-09
7.75702e-09
5.24139e-09
9.06931e-09
1.15529e-08
1.53514e-08
1.6117e-08
2.547e-08
2.11748e-08
3.1147e-08
2.37382e-12
6.11711e-12
1.14529e-11
5.71424e-10
4.82185e-10
5.03229e-10
2.10996e-09
6.21496e-10
6.11972e-10
3.5364e-09
2.58966e-09
3.78882e-09
4.43177e-09
6.84945e-09
1.44001e-09
6.14467e-09
4.78888e-09
3.63574e-09
1.64474e-09
2.72914e-09
3.54995e-09
5.9066e-09
6.0597e-09
1.01571e-08
1.06636e-08
1.46128e-08
1.70007e-08
2.06649e-08
2.34547e-08
2.39932e-08
9.5573e-13
6.87567e-11
2.57734e-10
4.56456e-10
5.56288e-10
1.8918e-09
1.51541e-09
7.54837e-10
2.55347e-09
5.48328e-10
1.8204e-09
1.74389e-09
7.78194e-09
2.89405e-09
5.05988e-09
6.65049e-09
8.91656e-09
3.21571e-09
4.0395e-09
4.15095e-09
3.06827e-09
6.49302e-09
6.6492e-09
8.12603e-09
1.11358e-08
1.20693e-08
1.4171e-08
1.86188e-08
1.97527e-08
2.25033e-08
3.66718e-12
4.66774e-11
2.13132e-10
7.64684e-10
7.78535e-10
1.60082e-09
2.19952e-09
1.51325e-09
1.82912e-09
5.91589e-10
2.47023e-09
2.56167e-09
5.49186e-09
2.32081e-09
2.52472e-09
6.21859e-09
4.62954e-09
2.58426e-09
3.22433e-09
3.89232e-09
4.53399e-09
6.41526e-09
6.97029e-09
9.62538e-09
1.12889e-08
1.23674e-08
1.48384e-08
1.61249e-08
1.93487e-08
1.96478e-08
7.92165e-12
8.5528e-11
3.81407e-10
9.69417e-10
9.90605e-10
2.27155e-09
2.23918e-09
1.79262e-09
2.473e-09
1.33121e-09
2.58437e-09
2.76091e-09
5.83565e-09
2.37332e-09
2.88683e-09
5.11708e-09
4.14899e-09
3.28683e-09
3.15195e-09
4.92692e-09
4.80162e-09
6.27225e-09
7.31088e-09
8.13875e-09
1.07386e-08
1.15775e-08
1.30289e-08
1.52472e-08
1.70444e-08
1.82658e-08
2.12018e-11
1.82488e-10
5.90964e-10
1.22791e-09
1.20107e-09
2.5679e-09
2.46696e-09
2.14273e-09
2.5246e-09
1.85355e-09
2.97611e-09
2.93249e-09
4.86335e-09
2.48388e-09
2.77548e-09
4.39492e-09
3.73266e-09
3.56968e-09
4.01507e-09
4.96193e-09
5.37854e-09
6.52727e-09
7.76895e-09
8.82176e-09
1.04499e-08
1.06686e-08
1.25689e-08
1.38183e-08
1.61797e-08
1.67513e-08
8.26828e-11
3.75399e-10
8.12548e-10
1.48553e-09
1.37233e-09
2.58326e-09
2.70707e-09
2.52326e-09
2.46292e-09
2.05082e-09
3.39181e-09
3.21673e-09
4.18963e-09
2.73161e-09
3.02757e-09
4.19835e-09
3.28355e-09
4.23473e-09
4.53406e-09
5.33333e-09
5.74886e-09
6.43037e-09
7.69858e-09
8.44616e-09
9.70925e-09
1.04802e-08
1.15174e-08
1.31318e-08
1.48417e-08
1.58134e-08
2.07614e-10
5.80912e-10
1.03798e-09
1.59223e-09
1.47852e-09
2.85985e-09
2.66416e-09
2.59774e-09
2.8714e-09
2.62237e-09
3.43192e-09
3.15051e-09
4.36553e-09
3.02781e-09
3.41571e-09
4.06986e-09
3.69751e-09
4.52235e-09
4.82052e-09
5.45969e-09
6.06052e-09
6.63735e-09
7.7335e-09
8.30519e-09
9.33165e-09
9.94885e-09
1.12036e-08
1.23454e-08
1.40794e-08
1.48368e-08
1.06144e-10
4.93716e-10
9.6964e-10
1.75583e-09
1.52062e-09
2.38502e-09
2.88793e-09
2.90306e-09
2.59352e-09
2.47335e-09
3.86896e-09
3.4205e-09
3.67893e-09
3.24449e-09
3.90721e-09
4.30346e-09
3.65186e-09
4.63524e-09
5.20843e-09
5.61738e-09
6.22822e-09
6.74817e-09
7.47932e-09
8.262e-09
8.86222e-09
9.79933e-09
1.06888e-08
1.1795e-08
1.31986e-08
1.41335e-08
1.70571e-11
4.77073e-10
1.17285e-09
1.58109e-09
1.53899e-09
2.71128e-09
2.66259e-09
2.815e-09
3.00952e-09
2.90378e-09
3.77119e-09
3.39556e-09
4.07471e-09
3.66911e-09
4.08713e-09
4.34731e-09
4.05578e-09
5.04514e-09
5.30957e-09
5.81101e-09
6.39607e-09
6.81046e-09
7.45232e-09
8.01506e-09
8.64023e-09
9.42624e-09
1.03164e-08
1.12161e-08
1.25393e-08
1.34235e-08
7.86352e-12
1.4306e-10
4.65891e-10
1.84123e-09
1.41141e-09
1.39083e-09
2.99667e-09
3.01076e-09
2.29814e-09
2.32733e-09
4.14787e-09
3.41672e-09
3.56093e-09
3.60234e-09
4.48714e-09
4.50813e-09
3.98542e-09
4.70844e-09
5.43373e-09
5.80199e-09
6.32121e-09
6.78156e-09
7.13122e-09
7.86175e-09
8.30318e-09
9.08796e-09
9.89631e-09
1.0718e-08
1.18605e-08
1.28389e-08
3.1316e-11
8.21314e-10
1.45693e-09
1.51476e-09
1.47399e-09
2.11119e-09
2.31041e-09
2.44066e-09
3.33635e-09
2.8983e-09
3.60757e-09
3.20903e-09
3.9996e-09
3.91368e-09
4.47231e-09
4.55846e-09
4.34289e-09
5.19842e-09
5.55232e-09
5.94632e-09
6.32744e-09
6.66303e-09
6.92316e-09
7.42821e-09
7.87026e-09
8.60178e-09
9.39772e-09
1.02072e-08
1.12838e-08
1.22578e-08
2.43783e-12
2.77072e-12
5.39965e-11
1.65569e-09
1.04472e-09
4.90203e-10
2.0677e-09
1.89285e-09
1.35397e-09
1.6524e-09
4.12522e-09
2.92023e-09
2.92619e-09
3.44087e-09
4.84481e-09
4.67403e-09
4.44675e-09
5.00013e-09
5.53701e-09
5.74797e-09
5.83176e-09
5.984e-09
6.14218e-09
6.64587e-09
7.18598e-09
7.8827e-09
8.83972e-09
9.67978e-09
1.07315e-08
1.17462e-08
1.87612e-09
2.57313e-09
1.59678e-09
1.96071e-09
1.6996e-09
2.80861e-09
2.96515e-09
3.20287e-09
4.3577e-09
3.11762e-09
2.6895e-09
1.20347e-09
5.67013e-10
2.26165e-10
1.99377e-10
2.41822e-10
4.48658e-11
5.81102e-11
6.3543e-10
1.38754e-09
3.01362e-09
1.42538e-09
4.75846e-10
1.1906e-11
2.53197e-11
5.02381e-10
1.42379e-09
3.15819e-09
4.45827e-09
6.71968e-09
4.96384e-09
5.66346e-09
7.6122e-10
2.31569e-10
4.59782e-11
2.5688e-12
1.51032e-12
3.0224e-13
7.74128e-14
1.60096e-13
8.01575e-12
1.71687e-12
6.96915e-12
4.28122e-12
2.8721e-12
1.41037e-13
1.79453e-12
2.40813e-11
7.0062e-11
9.20037e-11
9.51375e-11
6.32641e-11
3.3559e-11
1.56822e-11
5.35156e-12
2.04732e-12
7.26486e-13
1.47727e-13
6.25403e-14
3.52659e-15
3.48302e-11
4.83069e-12
1.9323e-13
9.36162e-15
8.24703e-14
4.51521e-14
1.24811e-16
3.63528e-16
6.42797e-15
1.28052e-16
1.27783e-14
1.73216e-14
8.46408e-15
2.35953e-16
3.79796e-15
7.90198e-16
8.20044e-14
4.996e-13
7.71301e-13
6.86533e-13
4.09377e-13
1.63355e-13
5.56682e-14
1.45222e-14
3.55108e-15
2.39047e-15
5.78573e-16
6.9614e-16
1.00535e-16
1.76122e-16
2.94001e-08
2.38152e-10
7.43935e-10
4.00858e-11
1.0622e-09
2.90829e-10
1.18675e-10
1.27072e-09
1.12831e-10
2.76948e-10
7.20757e-09
6.07404e-08
4.20944e-08
5.85499e-10
1.59612e-09
7.02311e-08
1.12135e-07
3.81607e-08
4.32335e-07
6.74197e-07
7.66309e-08
5.59586e-10
1.26925e-08
3.60356e-08
1.62789e-08
1.06311e-07
6.2592e-08
6.96719e-08
6.37402e-08
4.41423e-07
6.82658e-08
4.93058e-08
2.44636e-08
3.38974e-08
4.96006e-08
2.18553e-08
3.4796e-08
6.03825e-08
5.9517e-08
4.8628e-08
4.35023e-08
3.32412e-08
3.1777e-08
3.95788e-08
3.98535e-08
3.30605e-08
3.50649e-08
5.3307e-08
4.70668e-08
4.43123e-08
4.41883e-08
3.16426e-08
2.99613e-08
3.17486e-08
3.9382e-08
4.60205e-08
3.31416e-08
3.96706e-08
4.50624e-08
4.39071e-08
3.28708e-08
2.65564e-08
2.78787e-08
2.97247e-08
3.28718e-08
3.43182e-08
3.30075e-08
3.64165e-08
3.81826e-08
3.39918e-08
3.24278e-08
2.51438e-08
2.62156e-08
2.80017e-08
3.08535e-08
3.38396e-08
2.93013e-08
3.18318e-08
3.3741e-08
3.04043e-08
2.62696e-08
2.22268e-08
2.4493e-08
2.56074e-08
2.6306e-08
2.90367e-08
2.95036e-08
2.80909e-08
2.80283e-08
2.76872e-08
2.43893e-08
2.05835e-08
2.24809e-08
2.40787e-08
2.50257e-08
2.63012e-08
2.55043e-08
2.67432e-08
2.61958e-08
2.2998e-08
2.06711e-08
1.89614e-08
2.10396e-08
2.20223e-08
2.22696e-08
2.41302e-08
2.43196e-08
2.3054e-08
2.25903e-08
2.16766e-08
1.88518e-08
1.75513e-08
1.94073e-08
2.06378e-08
2.11521e-08
2.18762e-08
2.15029e-08
2.16184e-08
2.07023e-08
1.86778e-08
1.666e-08
1.64731e-08
1.81452e-08
1.91102e-08
1.95001e-08
2.02319e-08
1.99272e-08
1.92385e-08
1.85816e-08
1.72687e-08
1.53773e-08
1.54261e-08
1.69273e-08
1.78973e-08
1.83439e-08
1.86459e-08
1.81567e-08
1.77469e-08
1.69979e-08
1.54733e-08
1.41665e-08
1.46163e-08
1.58949e-08
1.67417e-08
1.71378e-08
1.73684e-08
1.68867e-08
1.62548e-08
1.556e-08
1.42336e-08
1.34182e-08
1.3877e-08
1.50154e-08
1.5739e-08
1.61128e-08
1.62467e-08
1.57651e-08
1.51543e-08
1.44263e-08
1.31371e-08
1.27174e-08
1.32096e-08
1.42415e-08
1.4807e-08
1.51968e-08
1.52618e-08
1.49156e-08
1.41566e-08
1.35264e-08
1.21104e-08
8.03756e-09
7.18298e-09
8.70844e-09
7.85808e-09
8.85247e-09
7.53197e-09
7.74729e-09
5.64646e-09
5.32122e-09
3.32554e-09
8.80983e-14
4.9509e-13
1.15795e-12
4.95153e-12
9.08148e-12
1.81555e-11
2.33536e-11
2.87561e-11
2.88899e-11
2.56081e-11
3.56651e-15
3.22544e-15
6.7185e-15
1.04591e-14
1.68488e-14
3.46378e-14
4.04482e-14
6.76217e-14
5.84713e-14
4.1935e-14
1.10634e-08
4.39948e-08
1.80116e-08
2.29867e-08
1.29809e-08
3.97627e-09
8.65139e-10
3.56965e-10
4.10775e-10
8.22164e-10
2.80628e-09
1.13882e-08
5.15597e-08
1.38959e-07
6.36594e-08
8.53106e-09
1.1453e-09
1.88062e-10
3.45328e-11
5.88951e-12
6.84221e-13
2.89092e-14
1.11859e-16
1.64427e-14
4.17039e-14
4.94826e-14
4.063e-14
2.58867e-14
1.37359e-14
6.57965e-15
2.95432e-15
1.33999e-15
6.05607e-16
2.99465e-16
1.52175e-16
8.22224e-17
4.95159e-17
2.26844e-17
2.07999e-17
1.41688e-17
1.38203e-07
4.74153e-09
4.93357e-08
1.7591e-07
1.566e-07
6.79695e-09
1.03359e-06
4.50097e-07
3.82028e-10
2.08244e-08
8.7463e-08
1.12383e-07
1.37666e-07
1.28992e-07
1.08662e-07
8.57599e-08
6.22847e-08
4.13499e-08
2.43503e-08
1.17908e-08
4.41311e-09
1.28628e-09
3.06434e-10
5.74808e-11
7.53867e-12
4.59659e-13
3.72101e-15
4.02405e-14
1.24804e-13
1.47554e-13
1.30617e-13
8.73946e-14
5.97521e-14
3.33993e-14
2.22527e-14
1.176e-14
8.56565e-15
4.24938e-15
3.26164e-15
1.2861e-15
3.35015e-08
7.01504e-08
1.05505e-07
5.00427e-08
8.63609e-08
1.79401e-06
1.77496e-06
6.57735e-07
1.57487e-07
6.81712e-09
7.88604e-09
6.11629e-08
1.09165e-07
1.26894e-07
1.16869e-07
9.87006e-08
7.54252e-08
5.20676e-08
3.4689e-08
2.47738e-08
1.97883e-08
1.67376e-08
1.37046e-08
9.86399e-09
5.75709e-09
2.46294e-09
7.51381e-10
1.58642e-10
2.35418e-11
2.14136e-12
6.91283e-14
1.94764e-14
7.17877e-14
1.13953e-13
1.44534e-13
1.16488e-13
1.20545e-13
7.51099e-14
7.68849e-14
3.28817e-14
8.21634e-07
1.34524e-07
1.00947e-07
2.92723e-08
3.33415e-07
2.3204e-06
2.13765e-06
7.88748e-07
3.09453e-07
1.30822e-07
5.33402e-09
5.9357e-09
5.26036e-08
1.01114e-07
1.13412e-07
1.03952e-07
8.25165e-08
6.26064e-08
4.57769e-08
2.47083e-08
1.24826e-08
9.23332e-09
9.80285e-09
1.07231e-08
1.0365e-08
8.95646e-09
7.21958e-09
5.43729e-09
3.80832e-09
2.32291e-09
1.16802e-09
4.29625e-10
1.07952e-10
1.62615e-11
8.83791e-13
9.00324e-16
2.00224e-13
3.88519e-13
1.26913e-12
6.87164e-13
1.00947e-07
1.04487e-07
1.53882e-07
8.60817e-09
1.20264e-06
2.83471e-06
2.58165e-06
9.74279e-07
3.33102e-07
2.91578e-07
7.70143e-08
1.70778e-12
1.57865e-08
5.78581e-08
8.19856e-08
7.9558e-08
6.03122e-08
8.03127e-09
3.33324e-10
7.01862e-10
1.11326e-08
9.21862e-09
4.36234e-09
4.94648e-09
6.81899e-09
7.46004e-09
6.72691e-09
5.44729e-09
4.24138e-09
3.20598e-09
2.44297e-09
1.83996e-09
1.41815e-09
1.07356e-09
8.23135e-10
6.15889e-10
4.49096e-10
3.30537e-10
2.2907e-10
1.98495e-10
5.87298e-08
5.39913e-08
1.18215e-07
2.96547e-09
1.41957e-06
2.8863e-06
2.66465e-06
1.11577e-06
2.70273e-07
3.39779e-07
2.83944e-07
2.10429e-09
2.33785e-08
7.13567e-08
9.58327e-08
8.09562e-08
5.73291e-08
3.23127e-08
5.08236e-08
1.54732e-08
2.54799e-09
8.40248e-11
8.11948e-10
6.06901e-09
4.58232e-09
5.2227e-09
5.62682e-09
5.08182e-09
4.12635e-09
3.15279e-09
2.40419e-09
1.80897e-09
1.40786e-09
1.08743e-09
8.85169e-10
7.164e-10
6.2203e-10
5.40861e-10
5.03882e-10
4.86969e-10
3.36298e-08
3.04048e-07
2.19104e-07
1.57081e-07
6.3556e-08
2.52601e-06
2.79734e-06
1.97047e-06
6.13687e-07
5.86195e-07
6.47725e-07
1.46584e-08
4.18301e-08
7.8389e-08
4.77558e-08
8.16794e-09
4.3783e-08
4.66801e-08
2.83948e-08
4.46028e-10
2.7915e-11
2.24251e-11
1.92732e-10
5.69455e-10
1.90432e-09
4.71609e-09
4.64462e-09
4.11172e-09
3.55735e-09
2.86247e-09
2.23384e-09
1.68464e-09
1.32376e-09
1.00523e-09
8.32363e-10
6.55185e-10
5.81177e-10
4.94751e-10
4.74427e-10
4.57069e-10
1.90885e-08
5.38723e-08
1.78459e-08
5.65841e-08
2.31365e-09
1.24329e-06
2.47054e-06
2.04145e-06
4.1491e-07
1.43783e-07
2.58368e-07
3.42336e-10
6.84477e-08
8.98383e-08
7.10245e-08
6.79053e-09
7.36953e-09
2.58323e-08
1.42495e-08
2.10453e-09
1.03337e-08
2.78381e-08
1.4141e-08
5.0504e-09
1.90628e-09
7.88748e-10
7.20473e-10
1.88601e-09
2.8979e-09
2.6502e-09
2.16389e-09
1.69019e-09
1.32559e-09
1.0297e-09
8.22141e-10
6.5376e-10
5.55728e-10
4.76701e-10
4.50747e-10
4.38146e-10
1.51708e-08
2.65567e-08
3.34724e-09
3.77406e-08
3.55323e-07
1.89947e-06
2.36243e-06
2.02822e-06
5.09995e-07
1.25696e-07
2.39748e-09
6.45607e-08
1.0278e-07
9.55006e-08
8.04992e-08
6.93316e-08
4.26152e-08
3.38358e-08
3.20691e-08
3.24118e-09
4.19842e-10
1.36651e-09
6.24894e-09
1.73221e-08
2.11849e-08
1.12716e-08
3.57106e-09
6.82422e-10
1.29128e-10
2.37403e-10
1.06293e-09
1.36307e-09
1.30764e-09
1.03988e-09
8.59953e-10
6.41094e-10
5.37774e-10
4.19644e-10
3.94975e-10
3.78143e-10
7.42661e-08
1.75008e-07
4.7663e-08
2.61755e-08
8.35627e-07
1.49788e-06
1.57499e-06
1.04665e-06
1.231e-08
4.46178e-08
9.0325e-08
6.63978e-08
4.85126e-08
6.92278e-08
6.30066e-08
5.63575e-08
4.74213e-08
2.62689e-08
2.20392e-08
3.14168e-08
2.63788e-08
1.80289e-08
6.3154e-09
4.22625e-09
5.87977e-09
1.00192e-08
1.29943e-08
1.06731e-08
5.72926e-09
2.3351e-09
1.12365e-09
7.50781e-10
8.3086e-10
7.86729e-10
7.34967e-10
5.5771e-10
4.43362e-10
3.51127e-10
3.22034e-10
3.19934e-10
4.05519e-08
8.43531e-10
4.9206e-08
3.36665e-08
1.03966e-08
3.45483e-09
6.43289e-09
9.3061e-08
8.46028e-08
7.66311e-08
8.91276e-08
8.08063e-08
5.30352e-08
4.91348e-08
5.34236e-08
4.40279e-08
3.97868e-08
3.08356e-08
6.6783e-09
1.44147e-08
2.22816e-07
1.82338e-07
9.23738e-08
1.05487e-07
1.08458e-07
1.02659e-08
7.96046e-09
6.10636e-09
5.09399e-09
4.40187e-09
3.61545e-09
2.82177e-09
2.12255e-09
1.55755e-09
1.1513e-09
7.97459e-10
5.76324e-10
3.72278e-10
2.96618e-10
2.57197e-10
2.18204e-08
2.3258e-08
7.26166e-08
6.94908e-08
7.44406e-08
5.65735e-08
9.77706e-08
8.91753e-08
7.10555e-08
6.49483e-08
2.9382e-08
4.26075e-08
4.92677e-08
5.46845e-08
4.56393e-08
4.04375e-08
3.33897e-08
3.56225e-08
9.31632e-08
3.66775e-08
3.10907e-08
2.49652e-08
1.48803e-07
4.92468e-08
2.4483e-08
2.98489e-08
4.50281e-08
5.06275e-08
2.41989e-08
1.38721e-09
1.73493e-10
6.05851e-10
1.01927e-09
1.11716e-09
1.06419e-09
7.52806e-10
4.87992e-10
2.08062e-10
1.46312e-10
1.72598e-10
2.76359e-08
2.21001e-08
4.73325e-08
6.23894e-08
6.49824e-08
7.01411e-08
7.84718e-08
5.83176e-08
5.995e-08
6.50725e-08
4.71573e-08
1.8953e-08
4.13105e-08
5.29466e-08
2.52768e-08
2.62629e-08
2.90578e-08
3.50894e-08
7.14136e-09
3.49922e-09
8.18346e-09
7.49545e-10
6.20847e-10
4.58244e-10
3.53286e-09
1.22345e-08
1.6853e-08
1.20683e-08
6.61874e-09
4.01068e-09
3.08232e-09
2.49887e-09
2.10082e-09
1.6189e-09
1.24827e-09
8.69225e-10
5.94803e-10
3.40815e-10
1.64578e-10
8.86087e-11
3.04154e-08
3.18356e-08
4.14333e-08
4.92034e-08
5.66776e-08
6.24158e-08
5.76874e-08
5.3202e-08
2.11851e-08
4.0802e-08
3.90037e-08
5.06942e-08
2.31972e-08
2.49115e-08
1.79909e-08
1.43973e-08
4.84233e-09
3.34263e-08
8.47237e-09
7.21371e-10
2.22142e-08
7.11812e-09
2.63006e-08
7.94625e-08
1.21569e-08
1.96498e-08
1.76026e-08
1.27384e-08
8.31707e-09
5.29173e-09
3.62279e-09
2.66106e-09
2.12981e-09
1.64859e-09
1.27059e-09
8.88441e-10
5.9463e-10
1.84934e-10
8.27204e-13
3.98282e-12
2.54102e-08
2.52308e-08
3.24985e-08
4.02947e-08
4.60668e-08
4.61665e-08
4.65823e-08
4.82832e-08
4.24159e-08
1.65248e-08
3.40383e-08
4.22922e-08
3.15559e-08
1.37573e-08
3.47078e-08
4.20114e-08
2.5131e-08
6.56256e-09
1.62491e-08
1.40904e-08
2.36841e-08
2.96261e-08
2.6229e-10
2.66859e-07
2.39553e-07
1.12884e-07
1.74336e-08
9.96826e-10
1.69232e-09
3.12133e-09
3.38694e-09
2.91827e-09
2.36791e-09
1.83221e-09
1.35337e-09
9.59635e-10
6.09215e-10
1.19282e-10
3.37132e-13
9.17007e-12
2.75755e-08
2.59484e-08
3.05733e-08
3.27804e-08
3.62279e-08
3.76593e-08
3.72887e-08
3.13123e-08
2.99368e-08
3.69968e-08
1.76134e-08
2.12508e-08
3.10805e-08
3.55877e-08
9.89055e-09
2.20744e-08
1.01952e-08
1.59947e-08
3.20686e-09
2.09851e-08
1.30822e-08
1.06085e-09
1.71386e-10
9.29876e-10
4.5155e-09
1.00191e-08
1.26185e-08
1.15202e-08
8.98198e-09
6.56449e-09
4.77403e-09
3.48042e-09
2.6038e-09
1.89696e-09
1.39182e-09
9.34715e-10
6.26711e-10
3.3878e-10
1.68454e-10
9.95895e-11
2.21173e-08
2.25993e-08
2.39848e-08
2.88148e-08
3.07665e-08
2.94724e-08
3.17117e-08
3.11394e-08
2.29715e-08
2.9047e-08
2.61663e-08
2.46479e-08
1.40715e-08
2.77332e-08
1.97392e-08
2.06806e-08
6.56872e-09
2.08527e-08
1.69543e-08
4.40878e-09
6.84304e-09
6.90093e-08
6.85203e-08
3.06882e-09
3.46419e-09
7.44189e-09
8.40631e-09
7.51486e-09
6.37093e-09
5.30722e-09
4.23545e-09
3.34196e-09
2.51787e-09
1.89366e-09
1.3051e-09
8.98746e-10
5.3411e-10
3.25462e-10
2.08542e-10
2.0658e-10
2.21808e-08
2.12329e-08
2.20514e-08
2.28432e-08
2.48137e-08
2.65581e-08
2.39528e-08
2.47385e-08
2.58103e-08
2.15601e-08
2.22893e-08
2.68614e-08
2.15868e-08
1.61326e-08
2.13612e-08
2.64914e-08
1.82563e-08
1.02522e-08
1.31285e-08
1.73423e-08
1.83261e-08
1.56899e-08
1.17245e-08
9.56278e-09
9.88707e-09
1.00829e-08
9.44015e-09
8.25094e-09
6.87842e-09
5.49349e-09
4.30861e-09
3.27419e-09
2.48698e-09
1.80088e-09
1.31655e-09
8.789e-10
6.20822e-10
3.89733e-10
3.13322e-10
2.78408e-10
1.83543e-08
1.83669e-08
1.84847e-08
1.99673e-08
2.06059e-08
2.02602e-08
2.19424e-08
2.06974e-08
1.94726e-08
2.22408e-08
2.10346e-08
1.78849e-08
2.15968e-08
2.31311e-08
1.85608e-08
1.65124e-08
1.96033e-08
2.05094e-08
1.77668e-08
1.29464e-08
7.83077e-09
8.03212e-09
1.17215e-08
1.35279e-08
1.31391e-08
1.14338e-08
9.33065e-09
7.33793e-09
5.71005e-09
4.4524e-09
3.45446e-09
2.68316e-09
2.00689e-09
1.49198e-09
1.04793e-09
7.47463e-10
5.35857e-10
4.15345e-10
3.65031e-10
3.51315e-10
1.72102e-08
1.67268e-08
1.63274e-08
1.65337e-08
1.71838e-08
1.74087e-08
1.68039e-08
1.73028e-08
1.76376e-08
1.65167e-08
1.76521e-08
1.91067e-08
1.71494e-08
1.60766e-08
1.81655e-08
1.9183e-08
1.68069e-08
1.29691e-08
1.30641e-08
1.48438e-08
1.45965e-08
1.29847e-08
1.12625e-08
9.59483e-09
8.34873e-09
7.47561e-09
6.75613e-09
5.94702e-09
5.11648e-09
4.21534e-09
3.41529e-09
2.64531e-09
2.05251e-09
1.50308e-09
1.13788e-09
8.01957e-10
6.3468e-10
4.80768e-10
4.40344e-10
4.10261e-10
1.49194e-08
1.45275e-08
1.40304e-08
1.40928e-08
1.42242e-08
1.40801e-08
1.44492e-08
1.43549e-08
1.44346e-08
1.53468e-08
1.52457e-08
1.517e-08
1.63905e-08
1.6849e-08
1.56844e-08
1.54403e-08
1.63998e-08
1.63059e-08
1.47497e-08
1.28767e-08
1.11876e-08
1.00802e-08
1.01936e-08
1.03468e-08
9.84839e-09
8.78905e-09
7.49558e-09
6.15196e-09
4.93699e-09
3.88045e-09
3.01243e-09
2.31213e-09
1.7572e-09
1.32836e-09
1.0124e-09
7.79464e-10
6.41496e-10
5.35942e-10
4.98031e-10
4.67464e-10
1.35833e-08
1.29727e-08
1.22452e-08
1.18549e-08
1.18386e-08
1.16597e-08
1.15919e-08
1.19525e-08
1.22832e-08
1.24569e-08
1.3191e-08
1.4048e-08
1.41047e-08
1.41743e-08
1.48466e-08
1.51288e-08
1.47989e-08
1.37616e-08
1.28644e-08
1.27394e-08
1.25087e-08
1.1582e-08
1.02537e-08
8.89327e-09
7.63095e-09
6.47313e-09
5.52301e-09
4.64523e-09
3.9182e-09
3.19245e-09
2.61368e-09
2.04604e-09
1.64705e-09
1.25405e-09
1.02465e-09
7.88243e-10
6.89942e-10
5.68654e-10
5.48002e-10
5.02355e-10
1.22159e-08
1.14959e-08
1.06749e-08
1.01424e-08
9.92132e-09
9.72095e-09
9.85098e-09
1.01623e-08
1.0598e-08
1.12497e-08
1.16338e-08
1.2008e-08
1.26646e-08
1.30331e-08
1.28791e-08
1.26556e-08
1.27081e-08
1.26439e-08
1.20608e-08
1.11041e-08
1.01479e-08
9.14648e-09
8.26456e-09
7.5721e-09
6.93949e-09
6.15002e-09
5.30175e-09
4.39143e-09
3.56487e-09
2.76653e-09
2.14121e-09
1.57467e-09
1.19717e-09
8.46093e-10
6.71824e-10
4.73119e-10
4.29574e-10
3.26012e-10
3.54492e-10
3.01645e-10
1.11909e-08
1.04305e-08
9.51292e-09
8.7638e-09
8.48229e-09
8.25787e-09
8.18349e-09
8.35411e-09
8.35898e-09
7.90369e-09
7.20352e-09
6.37458e-09
5.19053e-09
3.7542e-09
2.74598e-09
2.12533e-09
1.61066e-09
1.20431e-09
9.50796e-10
8.51558e-10
8.69178e-10
8.98564e-10
8.61342e-10
6.97027e-10
5.01155e-10
2.90999e-10
1.47879e-10
5.86188e-11
2.39146e-11
7.55709e-12
4.12976e-12
1.49832e-12
1.52248e-12
8.36758e-13
1.61038e-12
1.32882e-12
2.58451e-12
2.13344e-12
3.85975e-12
2.9264e-12
2.76425e-09
2.31418e-09
1.90692e-09
1.71128e-09
1.73262e-09
1.68927e-09
1.56692e-09
1.40037e-09
1.07102e-09
6.65374e-10
3.32207e-10
1.04234e-10
9.76325e-12
5.50573e-13
1.3712e-11
5.20703e-11
1.02345e-10
1.2462e-10
9.73027e-11
5.1521e-11
2.08593e-11
7.40152e-12
2.43962e-12
8.76129e-13
4.35075e-13
2.76141e-13
1.14272e-13
4.96001e-14
1.89891e-14
3.66252e-14
6.04242e-14
8.16114e-14
8.97173e-14
8.06934e-14
8.39241e-14
6.60181e-14
7.58784e-14
5.41997e-14
6.65983e-14
3.52405e-14
2.32801e-11
2.08113e-11
2.01444e-11
2.25545e-11
2.82108e-11
3.07836e-11
2.97056e-11
2.74856e-11
2.0647e-11
1.05986e-11
3.43004e-12
4.53269e-13
3.09565e-14
1.05287e-12
5.11158e-12
1.09491e-11
1.52687e-11
1.53392e-11
1.14278e-11
6.65844e-12
3.26398e-12
1.30832e-12
4.0005e-13
7.99028e-14
6.42622e-15
1.31172e-16
2.0533e-15
5.43784e-15
8.94751e-15
8.26472e-15
9.08294e-15
7.22668e-15
7.91667e-15
5.89623e-15
6.12678e-15
4.13591e-15
4.12638e-15
2.45733e-15
2.32173e-15
1.08765e-15
3.28455e-14
2.01443e-14
2.77239e-14
5.23174e-14
7.94517e-14
9.13587e-14
1.05842e-13
1.05604e-13
6.13572e-14
1.82454e-14
1.93004e-15
2.98016e-15
4.67325e-14
1.67324e-13
2.92135e-13
3.45828e-13
2.95904e-13
1.73148e-13
6.46953e-14
1.43384e-14
1.40574e-15
4.72454e-17
2.737e-16
9.102e-16
1.27133e-15
1.25337e-15
1.09702e-15
9.63482e-16
7.85349e-16
6.3175e-16
4.50165e-16
3.2395e-16
2.03004e-16
1.36906e-16
8.81612e-17
5.61389e-17
4.08277e-17
2.06506e-17
2.20288e-17
1.39682e-17
)
;

boundaryField
{
    inlet
    {
        type            calculated;
        value           nonuniform List<scalar> 
20
(
1.48323e-34
5.8252e-33
7.27051e-33
7.05761e-34
1.57535e-33
9.20203e-34
1.27751e-33
1.4254e-33
1.67455e-33
1.83625e-33
1.5701e-33
7.49044e-34
1.41607e-33
1.89027e-33
1.37675e-33
2.02544e-33
8.26843e-34
7.58512e-33
5.84323e-33
1.47051e-34
)
;
    }
    outlet
    {
        type            calculated;
        value           nonuniform List<scalar> 
27
(
2.24584e-33
1.93202e-33
1.61189e-33
1.24716e-33
5.70829e-34
7.76893e-35
2.04352e-37
3.79867e-36
1.59384e-34
9.47234e-34
1.44257e-33
1.83893e-33
2.14288e-33
2.43826e-33
2.62613e-33
2.31831e-33
1.06554e-34
1.16871e-36
3.56467e-40
1.58299e-39
2.31475e-39
1.95678e-41
8.46973e-37
9.70361e-35
2.64848e-33
2.64247e-33
2.46463e-33
)
;
    }
    lowerWall
    {
        type            fixedValue;
        value           uniform 0;
    }
    upperWall
    {
        type            fixedValue;
        value           uniform 0;
    }
    defaultFaces
    {
        type            empty;
    }
}


// ************************************************************************* //
