/*--------------------------------*- C++ -*----------------------------------*\
| =========                 |                                                 |
| \\      /  F ield         | OpenFOAM: The Open Source CFD Toolbox           |
|  \\    /   O peration     | Version:  2112                                  |
|   \\  /    A nd           | Website:  www.openfoam.com                      |
|    \\/     M anipulation  |                                                 |
\*---------------------------------------------------------------------------*/
FoamFile
{
    version     2.0;
    format      ascii;
    arch        "LSB;label=32;scalar=64";
    class       volScalarField;
    location    "0.23";
    object      p;
}
// * * * * * * * * * * * * * * * * * * * * * * * * * * * * * * * * * * * * * //

dimensions      [0 2 -2 0 0 0 0];

internalField   nonuniform List<scalar> 
1880
(
0.00330563
0.00316797
0.00307526
0.0030273
0.00299908
0.00297912
0.0029575
0.00293782
0.0029214
0.00291006
0.00289342
0.00288464
0.00287973
0.00287927
0.00287872
0.00288114
0.00288722
0.00289976
0.00291716
0.00295207
0.00299655
0.00306212
0.00314253
0.00324329
0.00335978
0.00350818
0.00367158
0.00386336
0.00409263
0.00430297
0.00312409
0.00309156
0.00305092
0.00301399
0.00298309
0.00296383
0.00294432
0.00292725
0.0029129
0.00290352
0.00288464
0.00287409
0.00287077
0.00287054
0.0028698
0.00286678
0.00287538
0.00288297
0.00290485
0.00293318
0.00297927
0.0030403
0.00311127
0.00321117
0.00330192
0.00345607
0.00355984
0.00378284
0.00390016
0.00410271
0.00309048
0.00306999
0.00304004
0.00300726
0.00297755
0.00295767
0.00293865
0.00291988
0.00290663
0.00289732
0.0028798
0.00286515
0.00286205
0.0028605
0.00285754
0.0028528
0.00286046
0.00287198
0.002889
0.00291469
0.00294971
0.00299882
0.00305863
0.00312917
0.00321323
0.00330702
0.00340703
0.00351222
0.00359715
0.003661
0.00303212
0.00302194
0.00300558
0.00298341
0.00295965
0.00294276
0.00292475
0.00290528
0.00289278
0.00288487
0.00286825
0.00285118
0.00284717
0.00284447
0.00284047
0.00283231
0.00283773
0.0028454
0.00285803
0.00287751
0.00290069
0.00294253
0.00297998
0.00303744
0.00309118
0.00315465
0.00321674
0.00326804
0.00330585
0.0033048
0.00300311
0.00299697
0.00298622
0.00296892
0.00294843
0.00293315
0.00291577
0.00289489
0.00288225
0.00287377
0.00285811
0.00283817
0.00283322
0.00282747
0.00282168
0.00281033
0.00281228
0.00281616
0.00282353
0.00283483
0.00284998
0.00287599
0.0029001
0.00293516
0.00296511
0.00299902
0.00302345
0.00303584
0.0030263
0.00298516
0.00297582
0.0029711
0.00296305
0.00294913
0.00293156
0.00291854
0.00290237
0.00288135
0.0028681
0.00285934
0.00284341
0.00282232
0.00281499
0.00280759
0.00279861
0.00278507
0.00278139
0.00278194
0.00278175
0.00278594
0.00279033
0.00280232
0.00281391
0.002825
0.0028381
0.00283954
0.00283877
0.00281743
0.00277465
0.002703
0.00295526
0.00295167
0.00294546
0.00293371
0.00291809
0.00290643
0.00289104
0.00286961
0.00285559
0.00284564
0.00282917
0.0028063
0.00279709
0.00278672
0.00277477
0.00275774
0.00274937
0.0027449
0.00273778
0.00273401
0.00272805
0.00272786
0.00272434
0.00271889
0.00271093
0.00269109
0.00266562
0.0026181
0.00254998
0.00245633
0.00293884
0.00293572
0.00293033
0.00291962
0.00290494
0.00289396
0.00287883
0.00285713
0.00284217
0.00283117
0.00281329
0.00278908
0.00277708
0.00276462
0.00274871
0.00272868
0.00271468
0.00270539
0.00269171
0.00267885
0.00266491
0.00265046
0.00263666
0.0026138
0.00258993
0.00255268
0.00250512
0.00243886
0.00235173
0.00223834
0.00292608
0.00292316
0.00291813
0.00290788
0.00289363
0.00288282
0.00286759
0.00284535
0.00282938
0.00281709
0.00279763
0.0027717
0.00275711
0.00274214
0.00272247
0.00269886
0.00267953
0.00266538
0.00264478
0.00262432
0.0026013
0.00257629
0.00255117
0.00251506
0.00247671
0.00242433
0.00236003
0.00227846
0.00217556
0.00204984
0.00291678
0.00291385
0.00290884
0.00289857
0.0028842
0.0028731
0.00285733
0.0028343
0.00281709
0.00280345
0.00278208
0.00275437
0.00273692
0.00271948
0.00269603
0.00266857
0.00264448
0.00262479
0.00259875
0.00256999
0.00253992
0.00250477
0.00246981
0.00242326
0.00237134
0.00230784
0.00222955
0.00213521
0.0020228
0.00188695
0.00291089
0.00290779
0.0029025
0.00289178
0.00287683
0.00286497
0.00284829
0.00282415
0.00280551
0.0027904
0.002767
0.00273733
0.00271702
0.0026971
0.00266996
0.00263876
0.00260988
0.00258525
0.00255361
0.00251806
0.00248084
0.00243763
0.00239376
0.00233818
0.00227552
0.00220236
0.00211337
0.00201002
0.00188973
0.0017475
0.00290849
0.00290508
0.00289925
0.00288773
0.00287181
0.00285881
0.00284089
0.00281541
0.00279521
0.00277854
0.00275303
0.00272127
0.00269809
0.0026756
0.00264504
0.00260994
0.00257695
0.00254725
0.00251086
0.00246895
0.00242541
0.00237547
0.00232347
0.00226088
0.00218911
0.00210814
0.00201178
0.00190091
0.00177555
0.00162918
0.00290985
0.00290588
0.00289908
0.00288614
0.00286862
0.00285393
0.00283431
0.00280722
0.00278544
0.00276723
0.00273956
0.00270568
0.00267974
0.00265483
0.00262098
0.00258228
0.00254531
0.00251109
0.0024702
0.00242293
0.00237366
0.00231814
0.00225942
0.00219087
0.00211224
0.0020251
0.00192318
0.00180732
0.00167798
0.00152937
0.00291578
0.0029112
0.00290327
0.00288868
0.00286929
0.00285263
0.00283111
0.00280225
0.00277872
0.00275872
0.00272866
0.00269234
0.00266368
0.00263618
0.00259921
0.00255689
0.00251631
0.00247776
0.00243281
0.00238089
0.00232659
0.00226653
0.00220217
0.00212882
0.00204517
0.00195307
0.0018475
0.00172795
0.00159597
0.00144654
0.00292613
0.00292004
0.00290968
0.002892
0.00286961
0.00285014
0.00282628
0.00279565
0.00277069
0.00274894
0.00271651
0.00267807
0.00264732
0.00261782
0.00257812
0.00253266
0.00248882
0.00244643
0.00239775
0.00234192
0.0022834
0.00221973
0.00215108
0.00207406
0.00198684
0.0018912
0.0017831
0.00166151
0.00152789
0.00137833
0.00294557
0.00293788
0.00292444
0.00290274
0.00287657
0.00285367
0.00282721
0.002795
0.00276866
0.00274485
0.00270972
0.00266915
0.00263622
0.00260431
0.00256149
0.00251262
0.00246552
0.00241941
0.00236717
0.00230786
0.00224573
0.00217917
0.00210728
0.00202748
0.00193798
0.00183987
0.0017303
0.00160766
0.00147315
0.00132403
0.00296644
0.00295448
0.00293517
0.00290791
0.0028778
0.00285197
0.00282378
0.00279083
0.00276322
0.00273693
0.00269912
0.00265695
0.00262245
0.00258824
0.00254284
0.00249134
0.00244185
0.00239244
0.00233691
0.00227501
0.00221044
0.00214225
0.00206858
0.00198734
0.00189685
0.00179756
0.00168737
0.00156466
0.00143019
0.00128176
0.00302003
0.00299751
0.0029642
0.00292572
0.00288894
0.00285915
0.00282896
0.00279526
0.00276556
0.0027357
0.00269527
0.00265239
0.00261651
0.00257974
0.00253194
0.00247886
0.00242726
0.00237421
0.00231498
0.00225006
0.00218271
0.00211294
0.00203815
0.00195611
0.00186541
0.00176567
0.00165542
0.00153313
0.00139906
0.00125197
0.00304899
0.00301424
0.00297022
0.00292701
0.00288877
0.00285828
0.00282727
0.00279327
0.00276215
0.00272941
0.00268699
0.00264376
0.00260659
0.00256784
0.00251862
0.00246333
0.00240688
0.00234741
0.00228397
0.00221785
0.00215175
0.00208398
0.00201056
0.00192992
0.00184086
0.00174206
0.00163262
0.00151149
0.00137791
0.00123133
0.00322882
0.00308878
0.00299219
0.00293775
0.00290184
0.0028703
0.00283625
0.0027994
0.00276504
0.00272968
0.00268791
0.00264568
0.00260605
0.00256405
0.00251476
0.00246067
0.00240336
0.00234177
0.00227657
0.00220964
0.00214213
0.00207233
0.00199838
0.00191803
0.00182944
0.00173117
0.00162223
0.00150215
0.00137007
0.00122615
0.00442185
0.00406871
0.00349623
0.00298786
0.00237873
0.00176695
0.000995875
-0.000240561
-0.00157006
-0.00331134
0.00417492
0.00365639
0.00296342
0.00253075
0.00193208
0.00125508
0.000386437
-0.000898047
-0.00194912
-0.0031499
0.00365623
0.00325752
0.00273701
0.00233802
0.00167783
0.0010706
0.000291935
-0.000645852
-0.00177927
-0.00273052
0.00328593
0.00289933
0.00240192
0.00193656
0.00138631
0.00069675
-7.97477e-06
-0.000884063
-0.00184147
-0.00263273
0.00291229
0.00257813
0.00212867
0.00171783
0.00120036
0.000589069
-7.39933e-05
-0.000842747
-0.00167819
-0.00239987
0.00261037
0.00228583
0.00189636
0.00144676
0.000986431
0.000375943
-0.000240433
-0.00091322
-0.00164291
-0.00227823
0.00233785
0.00204749
0.00167571
0.00126717
0.000833544
0.000299433
-0.000277813
-0.000885909
-0.00150813
-0.00208641
0.00210862
0.00182987
0.00149236
0.00109233
0.000683355
0.0001906
-0.000342253
-0.000892707
-0.00143264
-0.00194606
0.00190748
0.00165185
0.00133025
0.000960979
0.000577191
0.00013585
-0.000351291
-0.000848525
-0.00132464
-0.00178321
0.00173727
0.00149537
0.00119483
0.000848071
0.000485114
7.85218e-05
-0.000364375
-0.000816564
-0.00124017
-0.00164952
0.00159163
0.00136545
0.0010817
0.000759148
0.000419164
4.64639e-05
-0.000356429
-0.0007643
-0.00114749
-0.00151564
0.00146948
0.00125495
0.000988516
0.000687083
0.000367303
2.05905e-05
-0.000346335
-0.0007172
-0.0010664
-0.00140123
0.0013674
0.00116318
0.000912749
0.000630739
0.000330211
7.84007e-06
-0.000327872
-0.00066589
-0.000987851
-0.00129496
0.00128356
0.00108756
0.000851822
0.000586947
0.000304207
2.63528e-06
-0.000307549
-0.000618757
-0.000917463
-0.00120264
0.00121523
0.00102581
0.000803036
0.000553637
0.000286944
4.21864e-06
-0.000284713
-0.000573909
-0.000853535
-0.00112069
0.00116163
0.0009776
0.000765991
0.000529995
0.000277665
1.11582e-05
-0.000261036
-0.000533009
-0.000797135
-0.00105011
0.00111975
0.000939484
0.000736804
0.000512578
0.000272938
2.04848e-05
-0.000237826
-0.000496298
-0.000748135
-0.000990011
0.00109166
0.000914742
0.000718905
0.000503784
0.000274292
3.29674e-05
-0.000215015
-0.000464062
-0.000707145
-0.00094088
0.00107117
0.000896331
0.000705982
0.000499015
0.000278339
4.60571e-05
-0.000193106
-0.000434634
-0.000671932
-0.000900081
0.00106914
0.000896147
0.000707804
0.000503783
0.000286428
5.78277e-05
-0.000177525
-0.000415864
-0.000650882
-0.000879327
-0.00580008
-0.00593922
-0.00614861
-0.00692901
-0.00917949
-0.0118877
-0.0131233
-0.0127882
-0.0110837
-0.00834324
-0.00506509
-0.00200696
0.00039028
0.00194915
0.00265257
0.00288665
0.00277531
0.00251674
0.00221081
0.00191256
0.00164475
0.00141342
0.00121479
0.00104298
0.000894345
0.000765942
0.000655364
0.000560423
0.00047891
0.000408768
0.000347996
0.000294942
0.000248011
0.000206077
0.000168036
0.000133165
0.000100732
7.02483e-05
4.13012e-05
1.34586e-05
-0.0059329
-0.00604865
-0.00626758
-0.00741221
-0.0102012
-0.0130158
-0.014117
-0.0136223
-0.0118052
-0.00898689
-0.00559358
-0.0023843
0.00011109
0.00174761
0.00251131
0.00276991
0.00268344
0.00244201
0.00215069
0.00186465
0.0016069
0.00138342
0.00119096
0.00102453
0.000880159
0.000755215
0.000647541
0.000554932
0.000475162
0.000406288
0.000346401
0.000293933
0.000247392
0.000205694
0.000167836
0.000133071
0.000100737
7.02902e-05
4.13596e-05
1.35352e-05
-0.00544516
-0.0057252
-0.00655332
-0.00842198
-0.0118227
-0.0147971
-0.0157308
-0.0149401
-0.0130136
-0.0101027
-0.00657928
-0.00314441
-0.000441794
0.0013118
0.00217973
0.00249391
0.00246238
0.00226418
0.00200669
0.00174914
0.00151709
0.00131597
0.00114176
0.000989582
0.000856156
0.000739411
0.000637362
0.000548471
0.000471094
0.000403587
0.000344589
0.000292708
0.000246601
0.000205201
0.000167609
0.000133056
0.000100893
7.05661e-05
4.16528e-05
1.3761e-05
-0.00560708
-0.00578718
-0.00649888
-0.00899278
-0.0130946
-0.0165103
-0.0175268
-0.016467
-0.0143087
-0.0114227
-0.00780971
-0.00409035
-0.00120105
0.000711481
0.00169013
0.00207456
0.0021185
0.00199188
0.00179759
0.00159166
0.001399
0.00122741
0.00107536
0.000939787
0.000818585
0.000710817
0.000615585
0.000531913
0.000458589
0.000394378
0.000337794
0.000287649
0.000242834
0.000202362
0.000165521
0.000131572
9.98947e-05
6.99689e-05
4.13605e-05
1.3692e-05
-0.00527738
-0.00575264
-0.00672564
-0.00953744
-0.0138197
-0.0175783
-0.0186547
-0.0174275
-0.0150826
-0.0122863
-0.00877594
-0.00494722
-0.00192827
7.98656e-05
0.00116893
0.00161913
0.00171947
0.00165335
0.00152315
0.00138122
0.00124505
0.00111484
0.000990869
0.000875373
0.000769474
0.000673514
0.000587284
0.000510364
0.000442074
0.000381537
0.000327718
0.0002797
0.000236586
0.00019765
0.000161993
0.000128997
9.80922e-05
6.8832e-05
4.07627e-05
1.35341e-05
-0.00538814
-0.00536866
-0.00650136
-0.00930897
-0.0137187
-0.0176948
-0.0189182
-0.0175098
-0.0149899
-0.0122471
-0.0090192
-0.00540397
-0.00251141
-0.000566984
0.000578842
0.00114369
0.00134628
0.00135449
0.00127765
0.00118129
0.00108711
0.000994192
0.000899687
0.000805387
0.000714914
0.000630695
0.000553654
0.000483973
0.000421383
0.000365342
0.000315098
0.00026989
0.000228951
0.000191641
0.000157281
0.000125391
9.54683e-05
6.70609e-05
3.97449e-05
1.32029e-05
-0.00538989
-0.00573621
-0.00598805
-0.00877741
-0.0126816
-0.0162999
-0.0176109
-0.0164191
-0.0139491
-0.0113794
-0.00862554
-0.00546293
-0.00282378
-0.0010706
-1.32367e-05
0.000607527
0.000931032
0.00105893
0.00106081
0.0010086
0.000947939
0.000882306
0.000808749
0.000731176
0.000654909
0.000582516
0.000515006
0.000452874
0.00039619
0.000344788
0.000298274
0.000256173
0.000217909
0.000182918
0.000150586
0.000120403
9.18882e-05
6.46646e-05
3.83726e-05
1.2753e-05
-0.00486367
-0.00311723
-0.00540369
-0.00812688
-0.0114605
-0.0146755
-0.0159906
-0.0150282
-0.0127347
-0.0103692
-0.00799933
-0.00528409
-0.0029325
-0.00132044
-0.000353252
0.000228081
0.000570225
0.000759424
0.000835336
0.000842255
0.000815681
0.000773287
0.000719191
0.000657148
0.000592625
0.000530163
0.000471918
0.00041787
0.0003683
0.000322866
0.000281191
0.000242862
0.000207443
0.000174582
0.00014391
0.000115126
8.7894e-05
6.1884e-05
3.67506e-05
1.22231e-05
-0.00419702
-0.00480253
-0.00594893
-0.0079368
-0.0105384
-0.013104
-0.0142464
-0.0133332
-0.0112679
-0.00910954
-0.00705296
-0.00481913
-0.00287738
-0.00149128
-0.000593537
-1.64249e-05
0.000331395
0.000523125
0.000620761
0.00066583
0.000678617
0.000661159
0.00062331
0.00057649
0.000527023
0.000477237
0.000427851
0.000380732
0.000336811
0.000295914
0.0002581
0.000223305
0.00019126
0.000161587
0.000133836
0.000107599
8.25026e-05
5.82754e-05
3.46697e-05
1.15284e-05
-0.0038532
-0.00427968
-0.00534138
-0.00714913
-0.00908531
-0.0107677
-0.0115781
-0.0111002
-0.00954742
-0.00780793
-0.00611186
-0.00437084
-0.00282963
-0.00166171
-0.000850379
-0.000287699
8.50465e-05
0.000305238
0.000423757
0.000486255
0.000510945
0.000513331
0.000505059
0.000483957
0.000451206
0.000412257
0.000374135
0.00033825
0.000302877
0.000269401
0.000237897
0.000207905
0.000179291
0.000152025
0.000126038
0.000101265
7.75632e-05
5.47465e-05
3.25798e-05
1.0846e-05
-0.00348214
-0.00408353
-0.00496988
-0.00631588
-0.00768409
-0.00876126
-0.0092877
-0.00899181
-0.0079528
-0.00667511
-0.00536609
-0.00402658
-0.0027881
-0.00177815
-0.00103716
-0.000509218
-0.000145259
9.3189e-05
0.000239338
0.000323637
0.000364175
0.000375148
0.000370619
0.000364596
0.000358685
0.000349486
0.000330377
0.000301806
0.000270055
0.00024006
0.000211133
0.00018423
0.000159194
0.000135668
0.000113295
9.17634e-05
7.08102e-05
5.0267e-05
3.00057e-05
9.9829e-06
-0.00315319
-0.00376931
-0.00445849
-0.0054571
-0.00642942
-0.00709457
-0.00748132
-0.00740785
-0.00673492
-0.00577192
-0.00474976
-0.00369195
-0.00267442
-0.00181816
-0.00118
-0.000709132
-0.000365811
-0.000129068
3.62391e-05
0.000160129
0.000227559
0.000240437
0.00024464
0.000259486
0.000269587
0.000267225
0.000257668
0.00024537
0.000229401
0.000210682
0.000190601
0.000169406
0.000147864
0.00012651
0.000105605
8.52902e-05
6.5588e-05
4.64347e-05
2.77032e-05
9.23134e-06
-0.0028692
-0.00342825
-0.00399939
-0.00476501
-0.0054797
-0.00597684
-0.00624779
-0.00620396
-0.00577728
-0.00506297
-0.00424523
-0.00339273
-0.00256478
-0.0018483
-0.00128079
-0.000836543
-0.000493749
-0.000254643
-9.16648e-05
3.21591e-05
0.0001209
0.000180968
0.000221752
0.000240914
0.000241953
0.000238215
0.000229034
0.000213443
0.000196515
0.000177864
0.000159279
0.000141348
0.000124056
0.000107245
9.07217e-05
7.43045e-05
5.78718e-05
4.13755e-05
2.48151e-05
8.26261e-06
-0.00260547
-0.00310324
-0.00359343
-0.00417785
-0.00473084
-0.00511222
-0.00529718
-0.00528243
-0.00498532
-0.00444202
-0.00380034
-0.00312619
-0.00245605
-0.00184708
-0.00134641
-0.000947822
-0.000633079
-0.000390306
-0.00021184
-8.72491e-05
-4.11003e-06
3.83274e-05
5.94157e-05
8.97264e-05
0.00013245
0.000167865
0.000182616
0.000181497
0.000172098
0.000159381
0.000145364
0.000130568
0.000115229
9.95892e-05
8.38547e-05
6.8206e-05
5.27528e-05
3.75183e-05
2.24665e-05
7.49499e-06
-0.00237939
-0.00281059
-0.00323576
-0.00370954
-0.00414279
-0.00443942
-0.00459526
-0.00458368
-0.00436823
-0.00396215
-0.00344417
-0.00288631
-0.00233699
-0.00183265
-0.00139476
-0.00103257
-0.000744696
-0.000515573
-0.000336967
-0.000188814
-7.80446e-05
-2.26495e-05
4.95068e-06
3.25921e-05
6.79023e-05
9.38871e-05
0.000108417
0.000114563
0.000115035
0.000111405
0.00010516
9.72763e-05
8.82837e-05
7.84343e-05
6.78531e-05
5.6586e-05
4.47009e-05
3.22939e-05
1.95023e-05
6.50223e-06
-0.00217146
-0.00254906
-0.00291975
-0.00330662
-0.00366144
-0.00390686
-0.00402787
-0.00401863
-0.00385718
-0.00354573
-0.00313684
-0.0026857
-0.0022295
-0.0017986
-0.00141316
-0.0010822
-0.000810604
-0.000597092
-0.000430834
-0.000302399
-0.000201472
-0.000119991
-5.12323e-05
8.54753e-06
5.18008e-05
7.94869e-05
9.54404e-05
0.000102915
0.000104604
0.000102403
9.74424e-05
9.04384e-05
8.18964e-05
7.22427e-05
6.1829e-05
5.09496e-05
3.98234e-05
2.85611e-05
1.72129e-05
5.75193e-06
-0.00199098
-0.00232205
-0.00264686
-0.00297805
-0.00327181
-0.00347915
-0.0035868
-0.00358238
-0.0034487
-0.00320382
-0.00288299
-0.00251428
-0.00212854
-0.00176108
-0.00143177
-0.00114562
-0.000898835
-0.000689216
-0.000515673
-0.000373274
-0.000267161
-0.000185548
-0.000126673
-8.04235e-05
-4.01717e-05
-7.38749e-06
1.7187e-05
3.46097e-05
4.62267e-05
5.31922e-05
5.65335e-05
5.70364e-05
5.52826e-05
5.16644e-05
4.64811e-05
3.99374e-05
3.22586e-05
2.36716e-05
1.44435e-05
4.82614e-06
-0.00182831
-0.00212319
-0.00241128
-0.00269501
-0.00294588
-0.00312494
-0.00321626
-0.0032177
-0.00311943
-0.00292367
-0.00265884
-0.00235707
-0.00203978
-0.00172781
-0.00143486
-0.00116781
-0.000936352
-0.000744991
-0.000587894
-0.000460708
-0.000348343
-0.000253779
-0.00017423
-0.00010909
-5.76191e-05
-1.8941e-05
8.83052e-06
2.79993e-05
4.05912e-05
4.8113e-05
5.16707e-05
5.21066e-05
5.00994e-05
4.6215e-05
4.09321e-05
3.4644e-05
2.76651e-05
2.01753e-05
1.23077e-05
4.12425e-06
-0.00168641
-0.00195284
-0.00220982
-0.00245996
-0.00267811
-0.00283456
-0.00291955
-0.00292615
-0.00284595
-0.0026898
-0.00247818
-0.00222855
-0.00195871
-0.00168823
-0.00143409
-0.00120364
-0.000996417
-0.000811274
-0.000652407
-0.000516516
-0.000403576
-0.000310142
-0.000236842
-0.000177582
-0.000127858
-8.69867e-05
-5.43909e-05
-2.8878e-05
-9.24714e-06
5.43854e-06
1.5981e-05
2.30112e-05
2.70721e-05
2.85807e-05
2.79157e-05
2.53772e-05
2.13076e-05
1.60434e-05
9.95728e-06
3.34067e-06
-0.00156105
-0.00180507
-0.00203764
-0.00225941
-0.00245251
-0.00259236
-0.00266955
-0.00268162
-0.00262253
-0.00249708
-0.00232283
-0.0021148
-0.00188716
-0.00165633
-0.00143378
-0.00122187
-0.00102518
-0.00085216
-0.000703657
-0.000577651
-0.000465972
-0.000367622
-0.000283255
-0.000211414
-0.000151855
-0.000103852
-6.61498e-05
-3.7206e-05
-1.54779e-05
3.22376e-07
1.12784e-05
1.82771e-05
2.20884e-05
2.33632e-05
2.26725e-05
2.0482e-05
1.71734e-05
1.2977e-05
8.11122e-06
2.73272e-06
-0.00145219
-0.00167928
-0.00189239
-0.00209267
-0.00226571
-0.00239262
-0.0024656
-0.00248271
-0.00243809
-0.00233659
-0.00219347
-0.00202116
-0.00182858
-0.00162699
-0.00142859
-0.00124057
-0.00106532
-0.000903233
-0.000757076
-0.000627007
-0.000511548
-0.000412439
-0.000328597
-0.000259308
-0.00020116
-0.000152502
-0.000112339
-7.96061e-05
-5.32373e-05
-3.23561e-05
-1.61675e-05
-4.05951e-06
4.52965e-06
1.00521e-05
1.29476e-05
1.35918e-05
1.24154e-05
9.84724e-06
6.32045e-06
2.13928e-06
-0.00135786
-0.00157193
-0.00177014
-0.00195296
-0.00211057
-0.00222701
-0.00229623
-0.00231685
-0.00228505
-0.00220467
-0.00208727
-0.00194189
-0.00177664
-0.0016029
-0.00142992
-0.00125988
-0.00109403
-0.000938129
-0.000797872
-0.000672125
-0.00055981
-0.000459097
-0.000370439
-0.000293389
-0.00022722
-0.000171747
-0.000126179
-8.94641e-05
-6.04158e-05
-3.79555e-05
-2.09939e-05
-8.63048e-06
-4.58326e-08
5.4509e-06
8.48859e-06
9.5791e-06
9.15844e-06
7.51179e-06
4.94184e-06
1.68749e-06
-0.00127751
-0.00148189
-0.00166868
-0.00183838
-0.00198354
-0.00209154
-0.0021577
-0.00218159
-0.00216035
-0.00209626
-0.00199891
-0.0018772
-0.00173759
-0.00158686
-0.0014318
-0.0012769
-0.00112518
-0.000979958
-0.000843503
-0.000717022
-0.000600563
-0.000495792
-0.000404494
-0.000326038
-0.000259564
-0.000203552
-0.000156648
-0.0001178
-8.59541e-05
-6.01581e-05
-3.96169e-05
-2.37068e-05
-1.18049e-05
-3.3751e-06
2.10088e-06
5.09174e-06
6.06178e-06
5.48369e-06
3.78362e-06
1.30846e-06
-0.00121026
-0.00140765
-0.00158586
-0.00174487
-0.0018795
-0.00198073
-0.00204484
-0.00207108
-0.00205761
-0.00200757
-0.0019289
-0.00182732
-0.001707
-0.00157529
-0.00143864
-0.00129934
-0.00115799
-0.00101752
-0.000882506
-0.000755775
-0.000638752
-0.000532682
-0.000438178
-0.000355072
-0.000282881
-0.000220918
-0.000168959
-0.000126213
-9.16885e-05
-6.47279e-05
-4.34083e-05
-2.70565e-05
-1.49076e-05
-6.29632e-06
-5.76722e-07
2.78604e-06
4.27543e-06
4.26102e-06
3.10651e-06
1.11587e-06
-0.00115588
-0.00134912
-0.00152212
-0.00167324
-0.00179877
-0.00189379
-0.00195545
-0.00198293
-0.00197608
-0.00193778
-0.00187356
-0.00178873
-0.00168748
-0.0015743
-0.00145218
-0.00132301
-0.00118918
-0.00105389
-0.000920729
-0.000792895
-0.000672697
-0.00056223
-0.000463325
-0.00037691
-0.000302395
-0.000239301
-0.000186368
-0.00014239
-0.000106126
-7.62184e-05
-5.25982e-05
-3.42852e-05
-2.04286e-05
-1.03778e-05
-3.48944e-06
7.74263e-07
2.93205e-06
3.44469e-06
2.69193e-06
1.00834e-06
-0.00111175
-0.00130261
-0.00147279
-0.00161973
-0.00173916
-0.00182911
-0.00188841
-0.00191619
-0.00191389
-0.00188474
-0.0018327
-0.00176211
-0.0016774
-0.00158067
-0.0014727
-0.00135429
-0.00122704
-0.00109379
-0.000958757
-0.000826624
-0.000701583
-0.000586734
-0.000483812
-0.000393389
-0.000315386
-0.000248969
-0.000193028
-0.000146647
-0.000108709
-7.82214e-05
-5.41351e-05
-3.55231e-05
-2.14373e-05
-1.11885e-05
-4.07661e-06
4.23262e-07
2.80683e-06
3.51719e-06
2.85648e-06
1.1776e-06
-0.00109336
-0.00128412
-0.00145153
-0.00159436
-0.00171019
-0.00179761
-0.00185541
-0.00188311
-0.00188266
-0.00185734
-0.00181066
-0.00174662
-0.00166879
-0.00157876
-0.00147668
-0.00136293
-0.00123902
-0.00110778
-0.00097344
-0.000840954
-0.000714864
-0.000598364
-0.000493512
-0.000401293
-0.000321711
-0.000254082
-0.000197383
-0.000150452
-0.000112028
-8.09965e-05
-5.63168e-05
-3.71511e-05
-2.25906e-05
-1.19895e-05
-4.59577e-06
8.82845e-08
2.63061e-06
3.42971e-06
2.82932e-06
1.21851e-06
)
;

boundaryField
{
    inlet
    {
        type            zeroGradient;
    }
    outlet
    {
        type            fixedValue;
        value           uniform 0;
    }
    lowerWall
    {
        type            zeroGradient;
    }
    upperWall
    {
        type            zeroGradient;
    }
    defaultFaces
    {
        type            empty;
    }
}


// ************************************************************************* //
