/*--------------------------------*- C++ -*----------------------------------*\
| =========                 |                                                 |
| \\      /  F ield         | OpenFOAM: The Open Source CFD Toolbox           |
|  \\    /   O peration     | Version:  2112                                  |
|   \\  /    A nd           | Website:  www.openfoam.com                      |
|    \\/     M anipulation  |                                                 |
\*---------------------------------------------------------------------------*/
FoamFile
{
    version     2.0;
    format      ascii;
    arch        "LSB;label=32;scalar=64";
    class       volVectorField;
    location    "0.23";
    object      U;
}
// * * * * * * * * * * * * * * * * * * * * * * * * * * * * * * * * * * * * * //

dimensions      [0 1 -1 0 0 0 0];

internalField   nonuniform List<vector> 
1880
(
(0.099016 0.000606097 0)
(0.0984478 0.00115955 0)
(0.0973506 0.00130426 0)
(0.0958693 0.00129747 0)
(0.0941964 0.0013653 0)
(0.0924194 0.00140041 0)
(0.0905521 0.00140749 0)
(0.0889959 0.00135966 0)
(0.0870619 0.0014561 0)
(0.0853772 0.00142174 0)
(0.0833153 0.00144186 0)
(0.0817836 0.00129671 0)
(0.0794994 0.00134929 0)
(0.0780815 0.00127138 0)
(0.0757788 0.00144719 0)
(0.0743095 0.00143537 0)
(0.0716461 0.00144183 0)
(0.0701471 0.00126371 0)
(0.0675473 0.000965588 0)
(0.0664996 0.00101524 0)
(0.0640837 0.000453686 0)
(0.0634696 0.00130269 0)
(0.0607027 -5.44219e-05 0)
(0.0606723 0.00237757 0)
(0.0559271 -0.000613856 0)
(0.0575189 0.00392166 0)
(0.0484073 -0.000202233 0)
(0.0517779 0.00458465 0)
(0.0378119 0.00331333 0)
(0.0397367 0.00488476 0)
(0.099978 0.000703231 0)
(0.100342 0.0014118 0)
(0.100635 0.00166492 0)
(0.100991 0.00171091 0)
(0.101106 0.00185051 0)
(0.101329 0.00192896 0)
(0.101022 0.00207879 0)
(0.101464 0.00197698 0)
(0.100721 0.00224419 0)
(0.101346 0.00206791 0)
(0.100212 0.0024776 0)
(0.101319 0.00210716 0)
(0.099423 0.00259649 0)
(0.10064 0.00207346 0)
(0.0985374 0.00264507 0)
(0.0999415 0.002321 0)
(0.0976802 0.00297193 0)
(0.0988041 0.00244444 0)
(0.0965522 0.00304191 0)
(0.0969497 0.00197361 0)
(0.0954884 0.00301874 0)
(0.0937873 0.00160536 0)
(0.0947033 0.0032591 0)
(0.0894576 0.0019631 0)
(0.0928441 0.00430148 0)
(0.0851927 0.0030375 0)
(0.0878569 0.00646057 0)
(0.080484 0.00614324 0)
(0.0797589 0.00863194 0)
(0.0715145 0.0137799 0)
(0.099981 0.000248857 0)
(0.100239 0.000678061 0)
(0.100486 0.000970887 0)
(0.100849 0.00113356 0)
(0.101108 0.00128311 0)
(0.101397 0.00139941 0)
(0.101385 0.00153282 0)
(0.101888 0.00154321 0)
(0.101594 0.00178428 0)
(0.102118 0.00170269 0)
(0.101701 0.00208898 0)
(0.102632 0.00175313 0)
(0.101817 0.0023697 0)
(0.10245 0.00186346 0)
(0.101917 0.0025264 0)
(0.102136 0.0022661 0)
(0.102334 0.00260504 0)
(0.101405 0.0027111 0)
(0.102461 0.00261372 0)
(0.100447 0.00260156 0)
(0.101665 0.0032294 0)
(0.0990308 0.00235779 0)
(0.099805 0.0043291 0)
(0.0970598 0.00343385 0)
(0.097194 0.00511779 0)
(0.0946388 0.00655014 0)
(0.093501 0.00710817 0)
(0.0917967 0.00939691 0)
(0.0896825 0.0147953 0)
(0.0860088 0.0113692 0)
(0.0999798 0.00022875 0)
(0.100141 0.000638907 0)
(0.100246 0.000966583 0)
(0.100514 0.00115636 0)
(0.100726 0.00133368 0)
(0.100982 0.00143231 0)
(0.100973 0.00160593 0)
(0.101491 0.0016013 0)
(0.101252 0.00187164 0)
(0.101727 0.00173863 0)
(0.101364 0.00220176 0)
(0.102339 0.0018093 0)
(0.1015 0.00261106 0)
(0.102414 0.00185935 0)
(0.101489 0.0029716 0)
(0.102531 0.00199601 0)
(0.101794 0.0033366 0)
(0.10215 0.00238475 0)
(0.102049 0.00369497 0)
(0.101295 0.00287927 0)
(0.101823 0.00415759 0)
(0.0999913 0.00360329 0)
(0.100547 0.00497603 0)
(0.0986961 0.00491702 0)
(0.0984053 0.00646949 0)
(0.0970063 0.00726203 0)
(0.0965366 0.0092348 0)
(0.0941985 0.0106303 0)
(0.095042 0.0147226 0)
(0.0924297 0.0158879 0)
(0.0999789 0.000143925 0)
(0.100101 0.00041669 0)
(0.100146 0.000664869 0)
(0.100364 0.000841356 0)
(0.100549 0.00100238 0)
(0.100772 0.00111606 0)
(0.100761 0.00127358 0)
(0.101268 0.00131885 0)
(0.101097 0.00153172 0)
(0.101459 0.00149168 0)
(0.101236 0.00183504 0)
(0.101971 0.00166472 0)
(0.10153 0.00219022 0)
(0.101969 0.00192501 0)
(0.10169 0.00244568 0)
(0.102049 0.00231786 0)
(0.101955 0.0026645 0)
(0.101847 0.00285894 0)
(0.101911 0.00325101 0)
(0.101588 0.00319874 0)
(0.101466 0.00455361 0)
(0.100976 0.00351127 0)
(0.100569 0.00617482 0)
(0.0999359 0.00493409 0)
(0.099412 0.00762451 0)
(0.0986969 0.00778086 0)
(0.0980301 0.0104532 0)
(0.0976408 0.0107534 0)
(0.0967232 0.0160902 0)
(0.0972603 0.015238 0)
(0.0999781 0.000120803 0)
(0.100089 0.000354171 0)
(0.100101 0.000580269 0)
(0.100289 0.000758806 0)
(0.100443 0.00092063 0)
(0.100644 0.00104372 0)
(0.100608 0.0012015 0)
(0.101126 0.00127011 0)
(0.100959 0.00146291 0)
(0.101328 0.00145142 0)
(0.101087 0.00177818 0)
(0.101844 0.00164403 0)
(0.101397 0.00219016 0)
(0.10189 0.00188374 0)
(0.101596 0.00257238 0)
(0.101994 0.00221088 0)
(0.101977 0.00292038 0)
(0.101715 0.00283295 0)
(0.102178 0.00344404 0)
(0.101407 0.00369435 0)
(0.102018 0.00438611 0)
(0.101178 0.00465162 0)
(0.101153 0.00592865 0)
(0.100989 0.00597118 0)
(0.100202 0.0079577 0)
(0.100281 0.00838767 0)
(0.0998961 0.0106303 0)
(0.0993935 0.0118038 0)
(0.0997643 0.0150956 0)
(0.0997328 0.0161623 0)
(0.0999776 9.29315e-05 0)
(0.100078 0.000274565 0)
(0.100071 0.000450992 0)
(0.100236 0.000604657 0)
(0.100374 0.000735905 0)
(0.100555 0.000857334 0)
(0.100517 0.000988213 0)
(0.101021 0.00109195 0)
(0.100897 0.0012313 0)
(0.10122 0.00129772 0)
(0.101062 0.00150738 0)
(0.101711 0.00156009 0)
(0.101442 0.00186546 0)
(0.101771 0.00192082 0)
(0.101696 0.00220409 0)
(0.101969 0.00235616 0)
(0.102032 0.0026025 0)
(0.101925 0.00292554 0)
(0.102138 0.00341145 0)
(0.101916 0.00356007 0)
(0.10213 0.00478237 0)
(0.101835 0.00441025 0)
(0.101836 0.00641748 0)
(0.101746 0.00604244 0)
(0.101446 0.00815936 0)
(0.101655 0.0085612 0)
(0.101346 0.0108704 0)
(0.101616 0.0114306 0)
(0.10183 0.0150753 0)
(0.102318 0.015348 0)
(0.0999777 7.25874e-05 0)
(0.100073 0.000217457 0)
(0.100059 0.000359473 0)
(0.10021 0.000495635 0)
(0.100342 0.000606997 0)
(0.100511 0.000726533 0)
(0.100475 0.000841409 0)
(0.100971 0.000965518 0)
(0.100871 0.0010819 0)
(0.101184 0.00118059 0)
(0.101062 0.00135038 0)
(0.101684 0.00145874 0)
(0.10149 0.00171842 0)
(0.10177 0.00184371 0)
(0.101825 0.00208927 0)
(0.10199 0.00231202 0)
(0.102287 0.00249978 0)
(0.101978 0.00298459 0)
(0.102523 0.00320827 0)
(0.102137 0.00386245 0)
(0.102603 0.00441861 0)
(0.102435 0.00488732 0)
(0.102447 0.00612177 0)
(0.102699 0.0063168 0)
(0.102544 0.00807151 0)
(0.102771 0.00863282 0)
(0.103088 0.0104345 0)
(0.103181 0.0115793 0)
(0.103866 0.0139617 0)
(0.104525 0.0150776 0)
(0.0999781 5.42068e-05 0)
(0.10007 0.000165149 0)
(0.100054 0.000272937 0)
(0.100197 0.000387009 0)
(0.100331 0.000472388 0)
(0.100488 0.000583151 0)
(0.100466 0.000672661 0)
(0.100945 0.00081102 0)
(0.100886 0.000893946 0)
(0.101171 0.00103365 0)
(0.101113 0.00113358 0)
(0.10169 0.00133316 0)
(0.101581 0.00147506 0)
(0.101828 0.00175699 0)
(0.101954 0.00185448 0)
(0.102156 0.0022314 0)
(0.102439 0.00234467 0)
(0.102302 0.00281736 0)
(0.102724 0.00319125 0)
(0.102626 0.0035969 0)
(0.103005 0.00445893 0)
(0.103037 0.00468889 0)
(0.103206 0.00599141 0)
(0.103493 0.0062821 0)
(0.103591 0.00774396 0)
(0.104011 0.00843387 0)
(0.104367 0.0100932 0)
(0.104814 0.0109517 0)
(0.105605 0.0132416 0)
(0.106392 0.014115 0)
(0.0999788 3.67141e-05 0)
(0.100069 0.000114337 0)
(0.100056 0.000189206 0)
(0.100194 0.000278923 0)
(0.100337 0.000339796 0)
(0.100485 0.000437028 0)
(0.100484 0.000505921 0)
(0.100949 0.000645988 0)
(0.100929 0.000711159 0)
(0.101193 0.000866665 0)
(0.101193 0.000933067 0)
(0.101739 0.00116707 0)
(0.101708 0.00126123 0)
(0.101922 0.00160938 0)
(0.102145 0.00164487 0)
(0.10232 0.00210865 0)
(0.102709 0.00213085 0)
(0.10257 0.00272401 0)
(0.103068 0.00292434 0)
(0.103068 0.00355463 0)
(0.103458 0.00411129 0)
(0.103676 0.00465247 0)
(0.103895 0.0056166 0)
(0.104271 0.0061289 0)
(0.104646 0.00730543 0)
(0.104987 0.00815348 0)
(0.105686 0.00936208 0)
(0.106193 0.0105005 0)
(0.107083 0.0121081 0)
(0.108038 0.0132268 0)
(0.0999795 1.92403e-05 0)
(0.100069 6.29701e-05 0)
(0.100062 0.000104851 0)
(0.100199 0.000168074 0)
(0.100357 0.000203817 0)
(0.100499 0.000283558 0)
(0.100525 0.000331337 0)
(0.100976 0.00046641 0)
(0.101002 0.000514306 0)
(0.101244 0.000677655 0)
(0.101302 0.000712821 0)
(0.101825 0.000968487 0)
(0.101858 0.00102171 0)
(0.102071 0.00140835 0)
(0.102337 0.00141587 0)
(0.102565 0.00188838 0)
(0.102954 0.00193351 0)
(0.102932 0.00244771 0)
(0.10339 0.00273191 0)
(0.103547 0.00324386 0)
(0.103938 0.00383915 0)
(0.104266 0.00436674 0)
(0.104586 0.00519637 0)
(0.105033 0.00581929 0)
(0.105523 0.00677464 0)
(0.106007 0.00761632 0)
(0.106758 0.00872572 0)
(0.107426 0.0096569 0)
(0.108389 0.0110881 0)
(0.109434 0.0120703 0)
(0.0999804 9.52988e-07 0)
(0.100071 8.91225e-06 0)
(0.100073 1.71558e-05 0)
(0.100212 5.26788e-05 0)
(0.100389 6.56938e-05 0)
(0.100529 0.00012643 0)
(0.100585 0.000158131 0)
(0.101026 0.00028398 0)
(0.101096 0.000323687 0)
(0.10132 0.000483232 0)
(0.101435 0.000502305 0)
(0.101941 0.000758177 0)
(0.102037 0.00079093 0)
(0.102246 0.00119036 0)
(0.102565 0.00118102 0)
(0.102825 0.00166664 0)
(0.103242 0.00168838 0)
(0.103295 0.00221021 0)
(0.103754 0.00243313 0)
(0.104024 0.00298615 0)
(0.104427 0.00345182 0)
(0.104846 0.00406022 0)
(0.105256 0.00471857 0)
(0.105725 0.00540994 0)
(0.106376 0.00616327 0)
(0.10688 0.0070509 0)
(0.10773 0.00788846 0)
(0.108512 0.008848 0)
(0.109492 0.00993009 0)
(0.110608 0.0109099 0)
(0.0999813 -1.98641e-05 0)
(0.100074 -5.32919e-05 0)
(0.100091 -8.45945e-05 0)
(0.100238 -8.37809e-05 0)
(0.100439 -9.8682e-05 0)
(0.100584 -6.55831e-05 0)
(0.100674 -5.51423e-05 0)
(0.101109 5.04678e-05 0)
(0.101222 7.83432e-05 0)
(0.101429 0.000221579 0)
(0.101598 0.000227234 0)
(0.102094 0.000465686 0)
(0.102243 0.000490616 0)
(0.10246 0.000873283 0)
(0.102813 0.000876578 0)
(0.103126 0.00132754 0)
(0.103548 0.00137715 0)
(0.103689 0.00183508 0)
(0.104136 0.00207283 0)
(0.104498 0.00257729 0)
(0.104923 0.00300081 0)
(0.1054 0.00361084 0)
(0.10587 0.00416723 0)
(0.106396 0.00486158 0)
(0.107094 0.00551355 0)
(0.107689 0.00630534 0)
(0.108566 0.00707187 0)
(0.109425 0.0078729 0)
(0.110442 0.00879226 0)
(0.111603 0.00964819 0)
(0.0999822 -4.2726e-05 0)
(0.100079 -0.000120259 0)
(0.10011 -0.000189717 0)
(0.100269 -0.000217365 0)
(0.100498 -0.000251055 0)
(0.100651 -0.000236725 0)
(0.100777 -0.00023583 0)
(0.10121 -0.000142037 0)
(0.101364 -0.000116653 0)
(0.101561 1.08363e-05 0)
(0.101784 1.51831e-05 0)
(0.102277 0.000233859 0)
(0.102476 0.00026043 0)
(0.102706 0.000616014 0)
(0.103091 0.000633233 0)
(0.103452 0.00105171 0)
(0.103886 0.00111228 0)
(0.104104 0.00153207 0)
(0.104555 0.00174973 0)
(0.104988 0.00223213 0)
(0.105442 0.00258945 0)
(0.105951 0.00318751 0)
(0.106479 0.00364473 0)
(0.107025 0.0043142 0)
(0.107767 0.00484073 0)
(0.108412 0.00557917 0)
(0.109296 0.00618811 0)
(0.110219 0.00691371 0)
(0.111247 0.00762942 0)
(0.112417 0.00839142 0)
(0.0999833 -7.64557e-05 0)
(0.100092 -0.0002208 0)
(0.100153 -0.000348955 0)
(0.100337 -0.000421061 0)
(0.100601 -0.000485371 0)
(0.100773 -0.000501237 0)
(0.100939 -0.000515691 0)
(0.10137 -0.000443829 0)
(0.101557 -0.000429175 0)
(0.101749 -0.000331778 0)
(0.102023 -0.00033232 0)
(0.102517 -0.000149675 0)
(0.102751 -0.000125283 0)
(0.102992 0.000186168 0)
(0.103404 0.000221473 0)
(0.103815 0.000589635 0)
(0.104264 0.000664228 0)
(0.104554 0.00102633 0)
(0.10501 0.00123635 0)
(0.105486 0.00168071 0)
(0.105954 0.00200961 0)
(0.106472 0.00258235 0)
(0.107019 0.00299689 0)
(0.107588 0.0036179 0)
(0.108332 0.00409571 0)
(0.109021 0.0047342 0)
(0.109908 0.00527078 0)
(0.110856 0.00588127 0)
(0.111903 0.00645784 0)
(0.113082 0.00710196 0)
(0.0999843 -0.000104261 0)
(0.100106 -0.000299165 0)
(0.100202 -0.000460245 0)
(0.100424 -0.000547608 0)
(0.100729 -0.000618714 0)
(0.10093 -0.000648859 0)
(0.101139 -0.000667086 0)
(0.101567 -0.000614156 0)
(0.10178 -0.000610675 0)
(0.101976 -0.000540528 0)
(0.102304 -0.000538162 0)
(0.102802 -0.000384303 0)
(0.103072 -0.000357916 0)
(0.103329 -8.68676e-05 0)
(0.103766 -3.45164e-05 0)
(0.104222 0.000290256 0)
(0.104692 0.000380622 0)
(0.105052 0.000711941 0)
(0.105536 0.000929927 0)
(0.106055 0.00135149 0)
(0.106546 0.00165369 0)
(0.107058 0.00217653 0)
(0.107611 0.00252541 0)
(0.108171 0.003065 0)
(0.108894 0.00344733 0)
(0.109591 0.00397782 0)
(0.110461 0.00439424 0)
(0.111404 0.00489204 0)
(0.112461 0.00532398 0)
(0.113612 0.00584315 0)
(0.0999856 -0.000195965 0)
(0.100147 -0.000545773 0)
(0.100308 -0.000797207 0)
(0.100582 -0.000921548 0)
(0.100928 -0.00100987 0)
(0.101161 -0.00105913 0)
(0.101406 -0.00108224 0)
(0.101822 -0.00104786 0)
(0.102052 -0.00105563 0)
(0.102271 -0.00101264 0)
(0.10266 -0.00100537 0)
(0.103163 -0.000884159 0)
(0.103449 -0.000849265 0)
(0.103711 -0.00061678 0)
(0.104171 -0.000546228 0)
(0.104679 -0.000287501 0)
(0.105196 -0.000219816 0)
(0.105635 4.68672e-05 0)
(0.106146 0.000252044 0)
(0.106656 0.000653456 0)
(0.107128 0.000965392 0)
(0.107572 0.00147007 0)
(0.108094 0.00181529 0)
(0.108603 0.00230639 0)
(0.109307 0.00265498 0)
(0.10998 0.00310007 0)
(0.110866 0.00344401 0)
(0.111775 0.00384476 0)
(0.112872 0.00416809 0)
(0.113982 0.00457094 0)
(0.0999862 -0.00022551 0)
(0.100248 -0.000608431 0)
(0.100555 -0.000848448 0)
(0.10093 -0.000958849 0)
(0.101331 -0.00104838 0)
(0.101601 -0.00111877 0)
(0.101866 -0.00114429 0)
(0.102256 -0.00113012 0)
(0.102486 -0.00116218 0)
(0.102725 -0.00116788 0)
(0.103129 -0.00115494 0)
(0.103612 -0.0010601 0)
(0.103874 -0.00101233 0)
(0.104139 -0.00084203 0)
(0.104563 -0.000803443 0)
(0.105062 -0.000641489 0)
(0.105554 -0.000581992 0)
(0.106033 -0.000295795 0)
(0.106575 3.0747e-06 0)
(0.107104 0.000453722 0)
(0.107598 0.00080209 0)
(0.107996 0.00125299 0)
(0.108517 0.00153591 0)
(0.108961 0.00190148 0)
(0.109657 0.00213066 0)
(0.110267 0.00242141 0)
(0.111177 0.0026332 0)
(0.112015 0.00289073 0)
(0.113166 0.00308594 0)
(0.114204 0.00335725 0)
(0.0999861 -0.000686188 0)
(0.100346 -0.00136811 0)
(0.100716 -0.00157637 0)
(0.101064 -0.00160194 0)
(0.101374 -0.0016761 0)
(0.10152 -0.00176296 0)
(0.101616 -0.00177924 0)
(0.101811 -0.00174508 0)
(0.101844 -0.00175854 0)
(0.101918 -0.0017707 0)
(0.102058 -0.00175862 0)
(0.102278 -0.00169435 0)
(0.102185 -0.00160431 0)
(0.102269 -0.0014305 0)
(0.102361 -0.00136382 0)
(0.102719 -0.00131008 0)
(0.10285 -0.00130535 0)
(0.103188 -0.00110738 0)
(0.103371 -0.000802285 0)
(0.10381 -0.000380099 0)
(0.1041 1.73441e-05 0)
(0.104646 0.000466064 0)
(0.105172 0.000778564 0)
(0.105917 0.00110573 0)
(0.106677 0.00130743 0)
(0.107623 0.001514 0)
(0.108591 0.00165274 0)
(0.109732 0.00181043 0)
(0.110901 0.00191143 0)
(0.112235 0.00205972 0)
(0.0990195 -0.000601097 0)
(0.0984649 -0.00114895 0)
(0.0974212 -0.00127791 0)
(0.0959863 -0.00126762 0)
(0.0944304 -0.00131235 0)
(0.0927275 -0.00135044 0)
(0.0910737 -0.00131789 0)
(0.0896012 -0.00128302 0)
(0.0880341 -0.00131211 0)
(0.0864349 -0.00130814 0)
(0.0849372 -0.00123544 0)
(0.0835108 -0.00113509 0)
(0.0820153 -0.00105912 0)
(0.0807441 -0.00101374 0)
(0.0795302 -0.00103504 0)
(0.0784159 -0.00105146 0)
(0.0771121 -0.000980229 0)
(0.0760979 -0.000770394 0)
(0.0751756 -0.000502401 0)
(0.0748096 -0.000231013 0)
(0.0745395 9.49766e-06 0)
(0.0748539 0.000198489 0)
(0.0751535 0.000326517 0)
(0.0759675 0.000428026 0)
(0.076643 0.000477193 0)
(0.0777584 0.000535438 0)
(0.078651 0.00057048 0)
(0.0799866 0.000611659 0)
(0.0810261 0.000635696 0)
(0.0825597 0.000663096 0)
(0.0200084 0.0060764 0)
(0.059483 0.0259997 0)
(0.0393166 0.0167894 0)
(0.0749163 0.0267027 8.66211e-22)
(0.0563929 0.0244177 7.0903e-22)
(0.0936098 0.0418733 0)
(0.0736407 0.0377746 3.14546e-22)
(0.100628 0.0406021 -7.83169e-23)
(0.0832944 0.0303326 8.22838e-22)
(0.121934 0.0474569 0)
(0.0717162 0.016835 0)
(0.0796605 0.0227293 0)
(0.0850359 0.0307241 0)
(0.0977372 0.0407236 0)
(0.0935442 0.0331161 0)
(0.103029 0.0391593 1.78354e-22)
(0.109186 0.0464419 5.35755e-23)
(0.123983 0.0654587 -1.25682e-22)
(0.126715 0.0534503 -6.0864e-22)
(0.12995 0.0439302 -5.09952e-22)
(0.0875725 0.0258681 0)
(0.0893248 0.0272802 0)
(0.0930184 0.0277922 0)
(0.10022 0.0297335 0)
(0.103776 0.0430628 0)
(0.105845 0.034334 -1.78354e-22)
(0.110594 0.0373565 -5.35757e-23)
(0.12215 0.0407691 1.25683e-22)
(0.137914 0.0498852 3.13128e-22)
(0.141375 0.0436795 5.0998e-22)
(0.0914643 0.0208898 -4.15186e-22)
(0.0959978 0.0251626 0)
(0.100744 0.0287491 -3.19669e-22)
(0.10137 0.0298782 -2.64907e-22)
(0.107261 0.0364562 -1.92787e-22)
(0.114093 0.0361076 0)
(0.117602 0.0381761 0)
(0.123303 0.040996 1.40574e-22)
(0.133087 0.0422707 2.95615e-22)
(0.140613 0.0380647 4.36511e-22)
(0.09607 0.0223397 4.1519e-22)
(0.0993004 0.0229707 0)
(0.102327 0.0274791 3.1967e-22)
(0.106068 0.0265863 2.64907e-22)
(0.109182 0.0339387 1.92787e-22)
(0.115957 0.0314343 0)
(0.11912 0.0332369 0)
(0.126138 0.0324382 -1.40574e-22)
(0.134467 0.0363195 -2.95617e-22)
(0.140476 0.0323746 -4.36529e-22)
(0.0997497 0.0204934 0)
(0.102642 0.0219336 -2.97812e-22)
(0.105663 0.0252828 0)
(0.108899 0.0258205 -1.96734e-22)
(0.112159 0.0298568 0)
(0.118052 0.0295514 0)
(0.12257 0.0315674 0)
(0.127428 0.0307103 -1.46463e-22)
(0.133031 0.0314453 0)
(0.139823 0.0278421 0)
(0.102645 0.0197596 2.97851e-22)
(0.105249 0.0201285 5.6429e-22)
(0.107779 0.0236012 2.23534e-22)
(0.111306 0.0234864 1.96734e-22)
(0.1145 0.0272907 0)
(0.119351 0.0257815 -3.75811e-23)
(0.123576 0.0269269 0)
(0.128426 0.0263292 1.46463e-22)
(0.133952 0.0274728 0)
(0.139401 0.0228426 0)
(0.105134 0.0180603 -2.97852e-22)
(0.107497 0.0189042 -2.66478e-22)
(0.110098 0.0214373 -2.23535e-22)
(0.113264 0.0215556 0)
(0.116497 0.0239751 0)
(0.120744 0.023816 3.75812e-23)
(0.124776 0.0249218 0)
(0.128932 0.0232449 0)
(0.133672 0.0232325 0)
(0.138188 0.020496 0)
(0.107273 0.0167766 0)
(0.109406 0.0171849 -2.16298e-22)
(0.11186 0.0194458 0)
(0.114891 0.0195981 -1.3114e-22)
(0.117888 0.0215338 0)
(0.121535 0.0206131 0)
(0.1255 0.0213229 5.65229e-23)
(0.129542 0.0202987 1.35552e-22)
(0.133262 0.0203431 0)
(0.137001 0.0167654 2.97761e-22)
(0.109081 0.0151275 0)
(0.111016 0.0157627 2.16298e-22)
(0.11341 0.0174039 0)
(0.116171 0.0175061 1.3114e-22)
(0.119163 0.0188113 0)
(0.122481 0.0185602 0)
(0.125876 0.0190446 -5.6523e-23)
(0.129344 0.0175429 -1.35552e-22)
(0.132987 0.0171957 0)
(0.136293 0.0148182 -2.97762e-22)
(0.110573 0.0136679 1.02527e-22)
(0.112387 0.0140948 0)
(0.114665 0.0154535 0)
(0.117254 0.0155897 5.24195e-23)
(0.119958 0.0165866 0)
(0.122938 0.015993 0)
(0.126217 0.016316 0)
(0.129435 0.0151584 -6.03035e-23)
(0.13239 0.0147391 0)
(0.135213 0.0122777 0)
(0.111845 0.0120908 -7.51011e-24)
(0.113525 0.012561 0)
(0.115679 0.0135642 6.70756e-23)
(0.118068 0.0136538 -4.65425e-24)
(0.120676 0.0143202 0)
(0.12344 0.0139784 0)
(0.126284 0.0141162 -2.66244e-23)
(0.129133 0.0129275 6.03036e-23)
(0.131942 0.0123978 -8.627e-23)
(0.134465 0.0104933 -1.16937e-22)
(0.112867 0.0106056 -6.22686e-24)
(0.114473 0.0109561 0)
(0.1165 0.0117681 -4.82251e-24)
(0.118737 0.0118204 -3.62948e-24)
(0.121133 0.0123263 2.36424e-23)
(0.123671 0.0118909 -4.01686e-25)
(0.126328 0.0119109 1.53165e-24)
(0.12892 0.0109094 -5.22909e-23)
(0.13138 0.0103619 6.25457e-24)
(0.133641 0.00863173 8.61316e-24)
(0.11372 0.00911187 -8.879e-23)
(0.115244 0.00942946 0)
(0.117145 0.0100354 -6.22532e-23)
(0.119234 0.010066 -4.41359e-23)
(0.12149 0.010395 -2.36424e-23)
(0.123856 0.0100364 6.64507e-25)
(0.126253 0.00996052 2.50928e-23)
(0.128602 0.00905866 5.22909e-23)
(0.130886 0.00850474 8.00156e-23)
(0.13295 0.00707692 1.08324e-22)
(0.114388 0.00766459 0)
(0.115863 0.00790348 0)
(0.117653 0.00838084 0)
(0.119612 0.00837363 0)
(0.121719 0.00860359 0)
(0.123911 0.00824579 -2.6282e-25)
(0.126145 0.00810345 0)
(0.128308 0.00733526 0)
(0.130396 0.00681245 0)
(0.132299 0.00559007 0)
(0.11493 0.0062525 0)
(0.116343 0.00644381 0)
(0.118043 0.00678902 0)
(0.119875 0.00677305 0)
(0.121868 0.00690224 0)
(0.123907 0.00658852 -6.06691e-25)
(0.125997 0.00640618 0)
(0.127997 0.00574801 0)
(0.129954 0.00526246 0)
(0.131723 0.00425525 0)
(0.115339 0.00486052 0)
(0.116678 0.00499265 0)
(0.118345 0.00523549 2.56784e-23)
(0.120025 0.0052022 0)
(0.12195 0.00526167 1.01966e-23)
(0.123808 0.00498441 6.06692e-25)
(0.12582 0.00477955 0)
(0.127647 0.00423385 -1.95456e-23)
(0.129513 0.00380447 0)
(0.131123 0.00298702 0)
(0.115614 0.00352883 0)
(0.116759 0.00361808 0)
(0.118449 0.00376017 -2.56785e-23)
(0.119864 0.00371992 0)
(0.121792 0.00371153 -1.01967e-23)
(0.123341 0.00347541 0)
(0.125348 0.00325802 0)
(0.126841 0.00281129 1.95456e-23)
(0.128686 0.00242748 0)
(0.129925 0.00179226 0)
(0.113615 0.00212279 -8.96088e-24)
(0.114357 0.00215819 -7.69953e-24)
(0.115981 0.00219947 -6.23475e-24)
(0.116864 0.00215563 0)
(0.118704 0.00209086 -2.63086e-24)
(0.119606 0.00192173 0)
(0.121505 0.00171974 1.82955e-24)
(0.12221 0.00141113 0)
(0.123923 0.00109596 6.94417e-24)
(0.124167 0.000674913 9.64698e-24)
(0.0837323 0.000641324 8.95988e-24)
(0.0845133 0.000599907 7.6986e-24)
(0.0858109 0.000545378 6.23396e-24)
(0.0865711 0.000479101 0)
(0.0879092 0.000388165 2.63049e-24)
(0.0884713 0.000279709 0)
(0.0896551 0.000137467 -1.82926e-24)
(0.089744 -1.43453e-05 0)
(0.0905124 -0.000201697 -6.94293e-24)
(0.0897949 -0.000374755 -9.6452e-24)
(0.00416368 0.00242387 0)
(0.00057396 -0.00047588 0)
(-0.0105242 0.00598408 0)
(-0.0357862 0.0122354 0)
(-0.0864004 0.0167157 0)
(-0.11455 0.00968032 0)
(-0.126405 0.00475258 0)
(-0.12739 0.000141112 0)
(-0.120652 -0.00266028 0)
(-0.104427 -0.00573302 0)
(-0.0836155 -0.00672087 0)
(-0.059873 -0.00843497 0)
(-0.0330307 -0.00782573 0)
(-0.00960161 -0.00674671 0)
(0.0115785 -0.00552288 0)
(0.028117 -0.00394711 0)
(0.0410768 -0.0024892 0)
(0.0502904 -0.0012265 0)
(0.0563933 -0.000244099 0)
(0.0600229 0.000439949 0)
(0.061798 0.000847597 0)
(0.0622793 0.00103431 0)
(0.061957 0.001069 0)
(0.0611784 0.000996287 0)
(0.0601818 0.00086965 0)
(0.0591283 0.000724706 0)
(0.0581201 0.000583219 0)
(0.0572168 0.000458498 0)
(0.0564321 0.000356143 0)
(0.0557801 0.000276088 0)
(0.0552292 0.000214867 0)
(0.0547933 0.000168281 0)
(0.0544187 0.000133265 0)
(0.0541378 0.000105355 0)
(0.0538846 8.48303e-05 0)
(0.0537087 6.60593e-05 0)
(0.0535427 5.40663e-05 0)
(0.0534323 3.93225e-05 0)
(0.0533415 3.39563e-05 0)
(0.0532561 2.04371e-05 0)
(0.00329967 -0.00631383 0)
(-0.00167232 0.010777 0)
(-0.0211974 0.0209435 0)
(-0.067597 0.0396252 0)
(-0.0996399 0.0369035 0)
(-0.12052 0.0204863 0)
(-0.123305 0.00561644 0)
(-0.123891 -0.00430355 0)
(-0.111385 -0.0140619 0)
(-0.0984327 -0.0210787 0)
(-0.0729798 -0.0263089 0)
(-0.0494415 -0.028259 0)
(-0.0214804 -0.0285491 0)
(0.00252933 -0.0248985 0)
(0.0241431 -0.0213696 0)
(0.0413231 -0.0170735 0)
(0.0550428 -0.0130434 0)
(0.0654891 -0.0094406 0)
(0.0733649 -0.00643813 0)
(0.0793062 -0.00409215 0)
(0.083779 -0.00236374 0)
(0.087139 -0.00113516 0)
(0.089649 -0.000293871 0)
(0.0915085 0.00025385 0)
(0.0928346 0.000570408 0)
(0.0937596 0.000722256 0)
(0.0943382 0.000757428 0)
(0.0947071 0.000724564 0)
(0.0948732 0.000652137 0)
(0.0949724 0.000566721 0)
(0.0949526 0.000480313 0)
(0.094955 0.000399499 0)
(0.0948735 0.000331318 0)
(0.0948604 0.00026762 0)
(0.0947721 0.000221275 0)
(0.0947712 0.000171554 0)
(0.094699 0.000142856 0)
(0.0947127 0.000101052 0)
(0.0946695 8.67803e-05 0)
(0.0946873 4.95364e-05 0)
(0.00125332 0.00232717 0)
(-0.0228367 0.0196673 0)
(-0.0504346 0.0517665 0)
(-0.0644205 0.0614471 0)
(-0.0856129 0.0528007 0)
(-0.0946511 0.0300373 0)
(-0.0990404 0.00750996 0)
(-0.0944149 -0.00864112 0)
(-0.0868945 -0.0211437 0)
(-0.0714616 -0.0332993 0)
(-0.053563 -0.0429205 0)
(-0.0279258 -0.0471372 0)
(-0.00434804 -0.0458453 0)
(0.0186217 -0.040466 0)
(0.0381327 -0.0337391 0)
(0.0535231 -0.0264959 0)
(0.065347 -0.0199123 0)
(0.0737287 -0.0144124 0)
(0.0794343 -0.01017 0)
(0.0835676 -0.00704885 0)
(0.086927 -0.00482148 0)
(0.08989 -0.00322767 0)
(0.0925283 -0.00209717 0)
(0.0948559 -0.00128124 0)
(0.0968008 -0.000712589 0)
(0.0984182 -0.000315131 0)
(0.0996658 -5.678e-05 0)
(0.100662 0.000108839 0)
(0.101361 0.000197714 0)
(0.101925 0.000240177 0)
(0.102273 0.000246904 0)
(0.102588 0.00023455 0)
(0.102743 0.000213463 0)
(0.102936 0.000182112 0)
(0.102994 0.000157281 0)
(0.103134 0.000120973 0)
(0.103148 0.000101134 0)
(0.103266 6.34486e-05 0)
(0.103263 5.18106e-05 0)
(0.103373 1.35103e-05 0)
(0.00211326 0.00789259 0)
(-0.00777366 0.0453904 0)
(-0.0197315 0.0543611 0)
(-0.0319666 0.0653836 0)
(-0.0516201 0.0596773 0)
(-0.0571377 0.0341387 0)
(-0.0625213 0.00562621 0)
(-0.0569575 -0.0146222 0)
(-0.0492775 -0.0304155 0)
(-0.0367392 -0.0453938 0)
(-0.020807 -0.058756 0)
(-0.00283544 -0.0645597 0)
(0.0165847 -0.0631307 0)
(0.0345457 -0.0562127 0)
(0.0505835 -0.0468405 0)
(0.0634093 -0.03695 0)
(0.0742624 -0.0275082 0)
(0.0829371 -0.0192034 0)
(0.0884195 -0.0130265 0)
(0.0911034 -0.00908475 0)
(0.0924289 -0.00668154 0)
(0.0935688 -0.00504964 0)
(0.0949167 -0.00381227 0)
(0.0964571 -0.0028057 0)
(0.097962 -0.00200536 0)
(0.0993482 -0.00136421 0)
(0.100479 -0.000883829 0)
(0.101431 -0.000523962 0)
(0.102128 -0.000279596 0)
(0.10272 -0.000112034 0)
(0.103111 -1.41912e-05 0)
(0.10348 4.30093e-05 0)
(0.103686 6.89672e-05 0)
(0.103931 7.32153e-05 0)
(0.104032 7.05834e-05 0)
(0.104215 5.16762e-05 0)
(0.104257 4.22678e-05 0)
(0.104411 1.2312e-05 0)
(0.104422 5.03726e-06 0)
(0.104564 -3.28346e-05 0)
(-0.0141978 0.00857477 0)
(-0.00143697 0.0369263 0)
(-0.0104843 0.0633824 0)
(-0.00568392 0.0777096 0)
(-0.0148576 0.0704647 0)
(-0.010849 0.0414388 0)
(-0.0115468 0.00850328 0)
(-0.00224578 -0.0187317 0)
(0.00680022 -0.0360862 0)
(0.0177855 -0.0528961 0)
(0.0269627 -0.0676476 0)
(0.0390677 -0.07479 0)
(0.0494932 -0.072653 0)
(0.0578064 -0.0647009 0)
(0.0658088 -0.0538501 0)
(0.0713426 -0.0432807 0)
(0.0757069 -0.0340476 0)
(0.081912 -0.0248434 0)
(0.0889272 -0.0162854 0)
(0.0940554 -0.0101024 0)
(0.0965068 -0.00671463 0)
(0.0973232 -0.00511614 0)
(0.097702 -0.00424506 0)
(0.0982904 -0.00350785 0)
(0.0991197 -0.00279819 0)
(0.100095 -0.0021161 0)
(0.100989 -0.00153912 0)
(0.101796 -0.00106653 0)
(0.102398 -0.000722479 0)
(0.102921 -0.000465156 0)
(0.103265 -0.000297057 0)
(0.103601 -0.000179479 0)
(0.103791 -0.000109027 0)
(0.104026 -6.67526e-05 0)
(0.104125 -4.36879e-05 0)
(0.104308 -4.05775e-05 0)
(0.104353 -3.68626e-05 0)
(0.10451 -5.51673e-05 0)
(0.104523 -5.73235e-05 0)
(0.104671 -9.07212e-05 0)
(0.0193845 0.0168996 0)
(0.0115355 0.0465219 0)
(0.0202823 0.0601955 0)
(0.0318107 0.0729468 0)
(0.0299764 0.0638002 0)
(0.0412437 0.0329393 0)
(0.0447502 -0.000627369 0)
(0.0540712 -0.0283704 0)
(0.0635871 -0.0448288 0)
(0.0709923 -0.0572269 0)
(0.0759862 -0.0717332 0)
(0.0785964 -0.0805258 0)
(0.0835021 -0.0771702 0)
(0.0849856 -0.0680558 0)
(0.0860964 -0.0557771 0)
(0.0870808 -0.0427216 0)
(0.0839063 -0.0339616 0)
(0.0810089 -0.0279607 0)
(0.0829226 -0.0213154 0)
(0.0882905 -0.0143628 0)
(0.0937422 -0.00899789 0)
(0.0974223 -0.00587646 0)
(0.0992576 -0.00444456 0)
(0.100066 -0.0037557 0)
(0.100533 -0.00324515 0)
(0.10105 -0.00266858 0)
(0.101596 -0.00207779 0)
(0.102182 -0.00151657 0)
(0.102657 -0.00107073 0)
(0.103099 -0.000721334 0)
(0.103394 -0.000489067 0)
(0.103691 -0.000324825 0)
(0.103855 -0.000227176 0)
(0.104067 -0.000163682 0)
(0.104154 -0.000128411 0)
(0.104323 -0.000113159 0)
(0.104363 -0.00010252 0)
(0.104512 -0.000113592 0)
(0.104524 -0.00011244 0)
(0.104666 -0.00014386 0)
(-0.0346658 -0.0118356 0)
(0.00370342 0.0290186 0)
(0.0199303 0.0482054 0)
(0.0532164 0.0680672 0)
(0.0702958 0.0670736 0)
(0.0861926 0.0377506 0)
(0.0915182 0.00163052 0)
(0.101095 -0.0302952 0)
(0.10599 -0.046928 0)
(0.108471 -0.0566941 0)
(0.108246 -0.0698384 0)
(0.100803 -0.0805961 0)
(0.0967064 -0.0778083 0)
(0.0955212 -0.0676522 0)
(0.0925267 -0.0570614 0)
(0.093639 -0.042798 0)
(0.0934754 -0.0297357 0)
(0.0879471 -0.0235039 0)
(0.0827756 -0.0208768 0)
(0.0825249 -0.0175238 0)
(0.0864505 -0.0131109 0)
(0.0918005 -0.00900771 0)
(0.0963866 -0.00613619 0)
(0.0994189 -0.00444578 0)
(0.101058 -0.00352753 0)
(0.101905 -0.00290063 0)
(0.102363 -0.00237206 0)
(0.102735 -0.00185238 0)
(0.103021 -0.00140752 0)
(0.103325 -0.00102405 0)
(0.103534 -0.000748276 0)
(0.103773 -0.000535248 0)
(0.103907 -0.000396945 0)
(0.104094 -0.000296264 0)
(0.104171 -0.000234982 0)
(0.104327 -0.00019758 0)
(0.104366 -0.000173951 0)
(0.104505 -0.000174206 0)
(0.104518 -0.000168211 0)
(0.104651 -0.000195979 0)
(0.120648 0.0409954 0)
(0.0737805 0.0180281 0)
(0.0688418 0.0223149 0)
(0.07364 0.0363363 0)
(0.0920507 0.0378467 0)
(0.110211 0.0194289 0)
(0.120422 -0.0102266 0)
(0.127498 -0.0413271 0)
(0.128549 -0.0550747 0)
(0.131257 -0.0591645 0)
(0.13349 -0.0667383 0)
(0.124232 -0.0747644 0)
(0.109616 -0.0737595 0)
(0.101942 -0.0630604 0)
(0.0950657 -0.0529391 0)
(0.09053 -0.04305 0)
(0.091705 -0.0303344 0)
(0.0924766 -0.0206199 0)
(0.0898916 -0.0172025 0)
(0.0867647 -0.0167252 0)
(0.0860614 -0.0155349 0)
(0.0882606 -0.0129168 0)
(0.0921259 -0.0098285 0)
(0.0961725 -0.0070707 0)
(0.0993725 -0.00503002 0)
(0.101471 -0.00360724 0)
(0.102605 -0.0026542 0)
(0.103191 -0.0019539 0)
(0.103457 -0.00144869 0)
(0.10366 -0.00104428 0)
(0.103779 -0.000766572 0)
(0.103942 -0.00055549 0)
(0.104029 -0.000426636 0)
(0.104175 -0.000332813 0)
(0.10423 -0.000280012 0)
(0.10436 -0.000245008 0)
(0.104388 -0.00022382 0)
(0.104509 -0.000222351 0)
(0.104518 -0.000216181 0)
(0.104637 -0.000243282 0)
(0.14601 0.0340265 0)
(0.142014 0.0479703 0)
(0.134541 0.0481628 0)
(0.128213 0.0444104 0)
(0.13687 0.0351596 0)
(0.145906 0.0178585 0)
(0.155238 -0.00942482 0)
(0.161179 -0.0378788 0)
(0.154933 -0.0521195 0)
(0.151421 -0.0575008 0)
(0.15087 -0.0618124 0)
(0.142686 -0.0633975 0)
(0.126181 -0.0621477 0)
(0.111873 -0.0564038 0)
(0.103131 -0.0472786 0)
(0.0955987 -0.0386729 0)
(0.0916851 -0.0300296 0)
(0.0927959 -0.0218623 0)
(0.0957796 -0.0166634 0)
(0.0975016 -0.0145999 0)
(0.097087 -0.0140243 0)
(0.0957822 -0.013326 0)
(0.0952286 -0.0118692 0)
(0.0960797 -0.00968746 0)
(0.0979222 -0.00731989 0)