/*--------------------------------*- C++ -*----------------------------------*\
| =========                 |                                                 |
| \\      /  F ield         | OpenFOAM: The Open Source CFD Toolbox           |
|  \\    /   O peration     | Version:  2112                                  |
|   \\  /    A nd           | Website:  www.openfoam.com                      |
|    \\/     M anipulation  |                                                 |
\*---------------------------------------------------------------------------*/
FoamFile
{
    version     2.0;
    format      ascii;
    arch        "LSB;label=32;scalar=64";
    class       volScalarField;
    location    "0.34";
    object      nut;
}
// * * * * * * * * * * * * * * * * * * * * * * * * * * * * * * * * * * * * * //

dimensions      [0 2 -1 0 0 0 0];

internalField   nonuniform List<scalar> 
1880
(
3.43835e-11
3.27319e-12
7.0468e-13
5.02981e-14
1.34439e-14
1.64094e-13
1.48245e-14
1.76196e-14
1.28566e-14
4.74323e-14
5.9993e-14
1.11649e-13
3.90215e-14
5.13778e-14
1.44926e-13
3.52077e-14
1.49521e-13
8.20152e-16
8.3695e-14
7.67081e-13
6.87373e-13
5.87271e-12
2.1475e-13
2.35548e-12
4.67376e-12
1.89227e-12
7.53326e-11
3.89306e-11
5.31332e-10
1.16067e-09
4.00678e-09
5.46666e-09
2.68557e-09
6.68037e-11
1.27249e-10
1.30958e-11
6.05277e-12
1.68549e-11
1.96793e-13
5.74223e-12
3.4225e-13
7.07433e-12
5.5743e-12
2.78503e-12
4.78873e-12
5.41979e-12
3.00655e-11
2.75997e-11
2.70806e-10
1.2098e-10
4.13682e-10
1.82353e-10
1.38639e-10
8.73296e-10
9.69122e-11
4.49593e-10
1.4154e-09
8.33277e-10
2.14422e-09
6.98155e-09
2.07703e-09
2.54835e-09
9.47459e-10
6.10489e-10
3.38275e-10
9.09309e-10
3.03326e-09
4.04242e-10
1.35067e-09
6.53071e-10
1.48253e-11
1.75269e-09
1.60056e-09
1.7776e-11
4.15803e-09
1.27687e-11
7.78979e-10
3.10664e-09
2.49128e-11
5.38028e-09
1.84999e-09
1.26493e-09
7.85688e-09
4.07437e-09
1.92917e-09
1.42264e-08
4.67692e-09
6.57761e-09
3.68047e-08
1.69037e-08
2.79045e-10
1.77601e-09
5.45698e-11
1.59324e-09
7.32782e-10
1.47108e-09
8.88649e-09
3.11797e-09
1.15673e-08
1.21545e-09
4.09208e-09
8.99531e-12
2.07951e-08
2.71831e-09
2.31082e-08
7.94236e-09
6.53151e-09
5.71406e-09
1.00904e-08
7.24087e-09
4.27939e-09
5.35641e-09
3.5959e-09
9.51759e-09
1.04263e-08
1.68857e-08
1.78541e-08
1.78807e-08
3.07417e-08
3.7559e-08
3.7796e-10
4.90591e-10
3.23393e-09
3.39002e-10
2.67401e-09
1.24918e-09
4.07085e-09
2.37818e-09
5.08798e-09
5.84088e-10
8.15068e-10
4.98526e-10
1.58796e-08
1.93352e-09
2.74131e-08
5.52684e-09
1.19966e-08
4.57383e-09
3.77823e-09
7.51749e-09
5.56884e-10
5.64112e-09
1.64573e-09
9.53241e-09
6.04983e-09
1.51347e-08
1.17756e-08
1.67205e-08
2.34219e-08
2.84725e-08
7.64045e-11
3.02572e-10
1.21606e-09
1.94217e-09
7.16813e-10
2.97144e-09
9.89732e-10
4.13799e-09
1.32589e-09
1.31863e-09
8.68389e-10
8.06788e-10
1.90487e-10
3.3578e-10
1.30531e-09
1.54545e-09
3.56916e-10
2.16395e-09
1.9832e-09
3.53253e-09
4.25621e-09
6.74018e-09
6.22912e-09
9.12503e-09
9.63559e-09
1.20273e-08
1.44654e-08
1.73227e-08
2.19452e-08
2.26731e-08
2.22112e-10
9.30759e-10
3.2223e-09
1.62331e-09
3.20922e-09
1.84167e-09
3.65628e-09
2.7687e-09
3.39409e-09
2.76415e-10
1.19124e-09
6.12521e-10
7.89563e-10
1.07927e-09
1.69182e-09
1.37471e-09
2.36931e-09
2.27329e-09
2.95452e-09
3.57472e-09
5.70346e-09
5.12132e-09
7.1232e-09
7.81983e-09
9.00675e-09
1.09166e-08
1.33475e-08
1.38124e-08
1.85236e-08
2.10296e-08
1.17806e-10
5.77564e-10
2.26708e-09
1.80227e-09
1.8504e-09
1.90945e-09
2.01026e-09
2.99878e-09
2.09806e-09
3.50874e-10
2.10873e-09
6.85761e-10
2.42267e-09
1.82449e-09
2.13114e-09
2.7419e-09
4.82709e-09
3.81829e-09
4.41273e-09
4.56634e-09
6.87836e-09
6.69695e-09
8.29703e-09
8.78852e-09
1.02539e-08
1.11523e-08
1.38679e-08
1.42128e-08
1.82376e-08
1.85659e-08
1.61233e-10
6.65981e-10
2.29777e-09
1.77744e-09
1.86817e-09
1.50003e-09
1.87514e-09
2.29383e-09
1.68781e-09
1.38371e-09
2.41835e-09
1.47484e-09
2.53785e-09
1.80711e-09
3.03371e-09
3.10298e-09
5.67305e-09
4.60693e-09
4.67561e-09
4.61221e-09
6.58961e-09
5.93121e-09
7.94656e-09
8.55121e-09
9.91523e-09
1.06705e-08
1.30134e-08
1.35018e-08
1.63966e-08
1.81171e-08
1.34005e-10
4.9571e-10
1.88771e-09
1.62375e-09
1.5518e-09
1.45332e-09
1.7686e-09
2.32304e-09
1.98525e-09
1.6498e-09
2.62181e-09
1.95801e-09
3.40199e-09
2.92776e-09
3.53301e-09
3.72268e-09
5.5658e-09
4.61107e-09
4.96241e-09
5.10498e-09
6.83496e-09
6.61609e-09
8.23117e-09
8.72458e-09
1.00946e-08
1.05399e-08
1.27079e-08
1.32379e-08
1.59431e-08
1.66234e-08
1.69883e-10
5.91868e-10
1.57948e-09
1.53334e-09
1.36054e-09
1.54397e-09
1.61255e-09
2.33423e-09
1.8735e-09
2.15958e-09
3.02909e-09
2.33923e-09
3.34416e-09
3.32962e-09
3.66591e-09
4.10878e-09
4.98667e-09
4.67856e-09
5.03113e-09
5.16274e-09
6.52231e-09
6.72204e-09
8.06776e-09
8.83488e-09
9.80831e-09
1.0315e-08
1.20551e-08
1.28973e-08
1.48998e-08
1.60054e-08
2.0501e-10
6.60152e-10
1.43182e-09
1.4247e-09
1.48135e-09
1.7166e-09
1.86995e-09
2.37623e-09
2.2261e-09
2.48983e-09
3.0362e-09
2.69942e-09
3.89964e-09
3.42127e-09
3.93205e-09
3.95198e-09
5.03222e-09
4.69107e-09
5.32178e-09
5.48432e-09
6.75811e-09
6.9144e-09
8.2026e-09
8.74233e-09
9.79363e-09
1.02287e-08
1.17826e-08
1.25742e-08
1.44576e-08
1.51968e-08
1.76084e-11
6.05043e-10
1.0521e-09
1.40432e-09
1.48831e-09
1.79656e-09
1.95252e-09
2.46713e-09
2.19281e-09
2.49921e-09
3.29594e-09
2.93418e-09
3.5023e-09
3.73619e-09
3.98036e-09
4.18258e-09
4.5574e-09
4.91593e-09
5.69996e-09
5.66847e-09
6.61364e-09
7.16948e-09
8.08569e-09
8.84319e-09
9.56375e-09
1.01722e-08
1.13742e-08
1.22532e-08
1.3655e-08
1.45582e-08
3.36561e-12
5.00118e-10
1.12439e-09
1.35385e-09
1.58508e-09
2.01545e-09
2.07077e-09
2.4829e-09
2.38282e-09
2.73951e-09
3.27892e-09
3.11301e-09
3.83753e-09
3.72789e-09
4.19607e-09
4.29841e-09
4.91824e-09
5.16677e-09
5.82141e-09
5.89565e-09
6.91598e-09
7.24785e-09
8.22325e-09
8.8563e-09
9.6298e-09
1.02275e-08
1.12636e-08
1.2042e-08
1.33444e-08
1.41176e-08
5.06245e-14
2.54868e-10
4.40661e-10
1.15402e-09
1.59526e-09
1.65372e-09
2.13011e-09
2.41845e-09
2.10852e-09
2.40499e-09
3.28703e-09
3.08803e-09
3.30824e-09
3.79206e-09
4.27266e-09
4.27524e-09
4.63727e-09
5.27418e-09
6.06414e-09
5.9079e-09
6.62657e-09
7.34887e-09
8.15206e-09
8.88623e-09
9.50037e-09
1.01057e-08
1.09433e-08
1.16681e-08
1.25375e-08
1.3334e-08
4.36526e-11
8.48884e-10
1.25499e-09
1.4287e-09
1.54826e-09
1.92489e-09
1.95334e-09
2.28272e-09
2.36713e-09
2.76915e-09
3.06767e-09
3.16638e-09
3.50139e-09
3.79761e-09
4.20174e-09
4.40622e-09
4.82999e-09
5.4239e-09
5.97702e-09
6.07031e-09
6.86824e-09
7.37844e-09
8.14e-09
8.87416e-09
9.57576e-09
1.02613e-08
1.10185e-08
1.16196e-08
1.24288e-08
1.3116e-08
1.1908e-12
6.36647e-12
1.27708e-10
7.21228e-10
1.48063e-09
9.85201e-10
1.41314e-09
1.5334e-09
1.35103e-09
1.8223e-09
2.77643e-09
2.77375e-09
2.7668e-09
3.71723e-09
4.09824e-09
4.15589e-09
4.57766e-09
5.48224e-09
5.9928e-09
5.99957e-09
6.51118e-09
7.26709e-09
7.95214e-09
8.5505e-09
9.22627e-09
9.87898e-09
1.0589e-08
1.11118e-08
1.14872e-08
1.20274e-08
2.00478e-09
2.58577e-09
1.56807e-09
1.5237e-09
2.01218e-09
2.47098e-09
2.95945e-09
3.46636e-09
3.47669e-09
2.92775e-09
1.51372e-09
1.37851e-09
7.02359e-10
3.96459e-10
1.22908e-10
8.90074e-11
1.90253e-11
3.88864e-12
3.57206e-12
5.57404e-12
7.79976e-12
2.04198e-13
1.05946e-14
3.55538e-13
4.31551e-12
1.3544e-11
2.5691e-11
8.01484e-11
1.85666e-10
5.45556e-10
4.96666e-09
5.55662e-09
9.93234e-10
1.51197e-10
4.30146e-11
1.59288e-12
9.56366e-13
2.53437e-13
4.62349e-14
9.63351e-13
2.39411e-12
1.5077e-13
3.70911e-13
1.94114e-12
2.38452e-12
2.56951e-12
2.86569e-12
3.26424e-12
2.63715e-12
4.46193e-12
1.13592e-11
1.23115e-11
7.9474e-12
6.53896e-12
6.96687e-12
1.07563e-11
1.79704e-11
2.09681e-11
1.91722e-11
1.27715e-11
3.45813e-11
4.68628e-12
2.55653e-13
1.4554e-14
4.94529e-14
3.93777e-14
2.81521e-15
3.11012e-16
2.87013e-16
1.54804e-15
4.0123e-18
1.34557e-15
4.88836e-15
1.4685e-14
1.45236e-15
1.1574e-15
1.94591e-15
2.55648e-14
5.49963e-14
5.92275e-14
2.12283e-14
3.03744e-15
3.0296e-15
3.56666e-14
2.09449e-13
5.13493e-13
5.66047e-13
3.50941e-13
1.26593e-13
1.4328e-14
1.25561e-09
4.71046e-10
4.47944e-10
3.03088e-11
8.36113e-11
1.91322e-10
5.48784e-11
1.52108e-10
1.97636e-10
1.72806e-09
1.25312e-08
1.07701e-08
1.53468e-08
1.24788e-08
5.40387e-09
1.769e-08
2.89964e-09
5.85965e-08
4.39028e-09
1.23309e-07
1.40917e-08
4.95688e-08
4.8528e-08
3.83906e-08
2.83023e-08
8.00847e-08
3.08308e-08
7.34056e-08
7.69945e-08
5.23357e-08
4.95345e-08
1.85901e-08
4.27816e-08
4.20658e-08
3.39581e-08
3.41623e-08
3.46249e-08
6.32677e-09
6.11783e-08
4.97286e-08
3.58723e-08
3.43046e-08
3.53524e-08
3.64477e-08
3.0406e-08
3.90497e-08
4.83967e-08
2.55155e-08
3.76029e-08
2.87861e-08
3.60594e-08
2.5092e-08
3.14798e-08
3.33197e-08
2.92246e-08
3.46448e-08
4.08068e-08
4.01175e-08
3.24372e-08
3.75676e-08
2.85372e-08
2.6123e-08
2.77179e-08
2.84877e-08
2.85551e-08
3.0335e-08
3.69447e-08
3.69102e-08
2.8936e-08
3.42528e-08
2.89315e-08
2.28539e-08
2.58828e-08
2.73524e-08
2.74483e-08
2.9768e-08
3.24521e-08
3.35491e-08
2.62845e-08
3.05097e-08
2.4288e-08
2.18396e-08
2.40797e-08
2.49953e-08
2.54716e-08
2.70081e-08
2.93189e-08
2.99793e-08
2.49492e-08
2.70181e-08
2.33432e-08
2.02463e-08
2.25193e-08
2.35528e-08
2.39742e-08
2.58871e-08
2.64829e-08
2.60451e-08
2.4187e-08
2.4858e-08
2.03731e-08
1.90115e-08
2.11324e-08
2.21574e-08
2.21694e-08
2.34916e-08
2.46855e-08
2.43899e-08
2.18833e-08
2.14659e-08
1.91591e-08
1.79269e-08
1.97311e-08
2.07243e-08
2.10302e-08
2.20325e-08
2.22988e-08
2.19128e-08
2.09533e-08
2.01113e-08
1.70437e-08
1.68685e-08
1.85487e-08
1.95023e-08
1.95486e-08
2.04081e-08
2.08364e-08
2.02654e-08
1.9e-08
1.80991e-08
1.62633e-08
1.60449e-08
1.73966e-08
1.82458e-08
1.85524e-08
1.90224e-08
1.90408e-08
1.86284e-08
1.79213e-08
1.6808e-08
1.45961e-08
1.49938e-08
1.62197e-08
1.7086e-08
1.73093e-08
1.77523e-08
1.7737e-08
1.72588e-08
1.65144e-08
1.54943e-08
1.42331e-08
1.42935e-08
1.52339e-08
1.58834e-08
1.62513e-08
1.65436e-08
1.65001e-08
1.6126e-08
1.55723e-08
1.45678e-08
1.26187e-08
1.29398e-08
1.38703e-08
1.44841e-08
1.50198e-08
1.52306e-08
1.54151e-08
1.48592e-08
1.4531e-08
1.31581e-08
1.11639e-09
1.01996e-09
2.25357e-09
2.51212e-09
3.97521e-09
3.71054e-09
4.65397e-09
3.7177e-09
3.84518e-09
2.57185e-09
6.1341e-12
1.85722e-12
1.67111e-14
6.19609e-13
2.9307e-12
8.67265e-12
1.42567e-11
2.04632e-11
2.1756e-11
1.98008e-11
1.10904e-14
2.69925e-15
1.14472e-14
2.14335e-14
2.97818e-14
4.79594e-14
4.96938e-14
7.54294e-14
5.72635e-14
3.82077e-14
7.03808e-08
8.75615e-09
1.27045e-08
5.20177e-08
3.33868e-08
1.48907e-08
3.2467e-09
5.89986e-10
2.08819e-10
1.32391e-10
1.02518e-10
2.73762e-10
5.48371e-10
2.58932e-09
7.91641e-09
4.42893e-08
1.30298e-07
6.34446e-08
8.55781e-09
1.13728e-09
2.01392e-10
4.91704e-11
1.5517e-11
5.38924e-12
1.87336e-12
4.77666e-13
3.53306e-14
6.94601e-16
4.3364e-14
1.41557e-13
1.9976e-13
1.87905e-13
1.26235e-13
6.94818e-14
2.98094e-14
1.10777e-14
3.38344e-15
7.31407e-16
2.72423e-16
9.1891e-16
6.99715e-08
8.76581e-07
6.54999e-10
4.71849e-08
1.57998e-07
1.41938e-07
4.42006e-09
2.53338e-07
6.67206e-07
9.07949e-08
2.67626e-11
4.11983e-09
1.34117e-08
4.94107e-08
8.45279e-08
1.12696e-07
1.13444e-07
9.91081e-08
7.94735e-08
6.02048e-08
4.27026e-08
2.79678e-08
1.69928e-08
8.88013e-09
3.65603e-09
1.1528e-09
2.79231e-10
4.8844e-11
4.03212e-12
8.06729e-14
8.74035e-13
2.14907e-12
2.63865e-12
2.00478e-12
1.37444e-12
7.40436e-13
4.36121e-13
2.0228e-13
1.09611e-13
3.64284e-14
4.62173e-08
6.80803e-09
5.81351e-09
9.93105e-08
2.63623e-08
5.00112e-07
9.50509e-07
9.07752e-07
6.32679e-07
1.96819e-07
2.51806e-08
1.04678e-09
1.86383e-11
9.123e-10
1.67039e-08
5.9506e-08
9.52581e-08
9.68877e-08
8.01305e-08
6.56951e-08
5.57889e-08
4.60344e-08
3.84083e-08
3.44214e-08
3.07543e-08
2.61161e-08
1.78563e-08
5.14091e-09
2.94577e-10
6.65136e-13
3.74318e-11
6.68192e-11
5.09398e-11
2.25548e-11
8.79438e-12
2.6018e-12
1.07304e-12
3.78948e-13
2.23361e-13
1.06846e-13
5.57178e-08
1.07844e-08
1.44387e-07
1.71584e-07
9.30665e-10
4.8073e-07
9.04288e-07
1.02922e-06
7.53759e-07
2.84423e-07
4.30008e-08
4.80869e-09
2.56513e-09
9.74158e-10
2.27136e-10
1.55015e-08
6.30195e-08
9.68662e-08
8.50868e-08
6.24005e-08
5.28762e-08
4.59656e-08
3.51517e-08
2.562e-08
1.76612e-08
4.56861e-09
7.48893e-10
5.1286e-10
1.66618e-09
5.78708e-09
4.00305e-11
1.40211e-09
1.80576e-09
8.04931e-10
2.34585e-10
3.3953e-11
2.79045e-12
4.31702e-13
5.36837e-15
1.94339e-13
2.78164e-08
3.03278e-08
1.35924e-07
1.1837e-07
2.98705e-08
1.10972e-06
1.66599e-06
1.60996e-06
1.23998e-06
5.82608e-07
1.0447e-07
1.02466e-08
3.35231e-09
5.40229e-09
2.53415e-10
2.93529e-09
2.9944e-08
7.74141e-08
8.67639e-08
6.32012e-08
4.253e-08
3.46785e-08
2.00166e-08
1.31359e-08
9.20615e-09
7.00676e-10
2.1185e-08
2.20473e-09
1.53581e-10
1.07303e-13
1.07222e-10
7.85451e-10
2.35652e-09
1.75257e-09
1.16055e-08
3.09922e-09
1.53651e-10
3.86934e-12
3.15591e-12
1.94705e-13
2.11888e-06
7.08556e-08
1.25647e-07
8.06471e-08
1.13948e-08
4.60305e-07
9.77552e-07
1.26146e-06
1.19186e-06
8.0339e-07
2.67722e-07
4.57686e-08
7.71067e-09
4.48507e-09
7.90982e-10
4.93287e-09
3.98887e-08
6.25271e-08
6.87378e-08
3.95548e-08
3.46513e-08
2.57126e-08
1.13834e-08
6.11034e-10
1.37966e-10
4.81653e-09
4.15262e-09
4.91306e-08
9.76303e-11
1.83437e-11
1.72471e-10
3.76281e-10
5.9774e-10
7.65798e-10
8.88295e-10
8.75201e-10
7.41042e-10
1.87735e-10
2.69723e-11
1.43314e-11
4.68548e-08
1.56608e-07
2.08331e-07
2.32532e-07
1.21821e-08
2.41549e-07
1.61871e-06
2.09809e-06
1.92402e-06
1.39034e-06
6.8203e-07
2.35372e-07
1.05532e-07
2.13144e-08
9.20057e-11
1.28133e-08
6.88691e-08
7.60359e-08
6.4581e-08
3.06371e-08
7.07991e-09
1.72032e-08
1.89075e-08
7.23625e-09
1.04462e-09
5.23707e-09
9.43137e-09
4.38564e-10
1.61943e-11
3.53682e-09
1.07137e-08
6.7129e-09
3.74803e-09
2.17433e-09
1.24488e-09
6.97922e-10
3.12108e-10
1.36148e-10
1.8704e-11
4.38272e-11
2.83063e-08
3.3702e-08
1.20453e-08
8.048e-08
6.14967e-08
7.94186e-09
1.25005e-07
1.40529e-06
1.75365e-06
1.53621e-06
9.24614e-07
3.44363e-07
1.8408e-07
8.73026e-08
1.53872e-11
4.87917e-08
8.83971e-08
7.20368e-08
6.53952e-08
4.61567e-08
3.85522e-08
3.12994e-08
2.72747e-08
2.4082e-08
2.25097e-08
2.11741e-08
1.98108e-08
5.27264e-09
6.03965e-13
1.29534e-10
1.38594e-11
1.38443e-10
2.73482e-09
9.1332e-09
8.44208e-09
3.63238e-09
8.44168e-10
7.85371e-11
6.52256e-12
2.44486e-11
9.82308e-08
1.59564e-08
2.44435e-09
1.215e-09
3.104e-08
5.84167e-08
3.69232e-07
1.28059e-06
1.60342e-06
1.3759e-06
9.6371e-07
5.71306e-07
2.88345e-07
1.90609e-08
3.11389e-08
7.16621e-08
3.14376e-08
3.0555e-08
3.79523e-08
4.20102e-08
3.07489e-08
2.69478e-08
2.75113e-08
2.6658e-08
2.409e-08
1.95718e-08
1.44317e-08
1.17987e-08
1.01231e-08
5.45421e-09
6.38778e-10
3.22966e-11
2.33895e-11
1.10607e-10
6.75481e-10
2.57008e-09
4.79782e-09
3.67678e-09
5.58845e-10
1.60903e-11
9.08483e-08
2.01544e-08
2.69327e-08
4.34811e-09
8.0287e-08
1.74666e-07
5.82338e-07
1.33265e-06
1.46054e-06
1.28277e-06
9.57387e-07
2.68225e-07
1.91612e-10
6.2256e-08
8.51775e-08
9.03221e-08
5.24e-08
3.9558e-08
3.77549e-08
3.23461e-08
3.37531e-08
3.23261e-08
2.56471e-08
2.07649e-08
2.21658e-08
2.22852e-08
1.32597e-08
1.82694e-09
5.89035e-10
1.99669e-10
1.6588e-09
2.4701e-09
5.53941e-09
3.66909e-08
3.60479e-09
2.62229e-09
2.59098e-09
2.51517e-09
2.9238e-09
1.55203e-09
2.05795e-08
3.08995e-08
4.77185e-08
5.43138e-09
7.15205e-08
2.00537e-07
5.94667e-08
1.99428e-07
5.47788e-07
1.47295e-07
1.03077e-08
6.24336e-08
8.38312e-08
9.12347e-08
6.37054e-08
6.37611e-08
4.36157e-08
3.48105e-08
3.74053e-08
3.37773e-08
2.17923e-08
1.0979e-09
1.46972e-10
1.45033e-08
1.11987e-08
5.4148e-09
2.37101e-10
4.32415e-09
1.00335e-08
1.32344e-08
7.09009e-09
3.21231e-09
1.52248e-09
4.7374e-10
3.19759e-10
4.22634e-10
1.44467e-09
7.49018e-10
1.11636e-09
2.02881e-09
3.91452e-08
3.3186e-08
5.13628e-08
5.87299e-08
4.46836e-08
3.14311e-08
3.95543e-08
5.48767e-08
4.49123e-08
4.98963e-08
7.10824e-08
6.10842e-08
5.87203e-08
6.74542e-08
5.45387e-08
4.51817e-08
4.54528e-08
4.47826e-08
3.41114e-08
2.10531e-08
3.22033e-08
2.56867e-08
1.13772e-08
1.45977e-08
8.53599e-09
1.01451e-08
4.45976e-10
1.52594e-07
1.33346e-07
5.34063e-09
3.51496e-11
2.05086e-09
1.19072e-09
8.39627e-10
7.0879e-09
8.05885e-11
1.68471e-09
3.80824e-09
4.15885e-09
3.51312e-10
3.12058e-08
2.52986e-08
3.71537e-08
3.51464e-08
4.54155e-08
4.6424e-08
4.42073e-08
5.14104e-08
5.90327e-08
6.24013e-08
6.49837e-08
5.80705e-08
4.83753e-08
4.88802e-08
5.30336e-08
5.03527e-08
2.83169e-08
3.1604e-08
3.7198e-08
2.89126e-08
2.61657e-08
1.73494e-08
9.99012e-09
1.58796e-08
1.82417e-08
1.70671e-08
1.71735e-08
1.41824e-08
1.0912e-08
1.19165e-08
8.68586e-09
4.91867e-10
2.53175e-10
6.53816e-11
8.96067e-11
4.9803e-10
1.46464e-09
2.47821e-09
4.20785e-09
2.60948e-09
3.45676e-08
3.09373e-08
2.75694e-08
3.15533e-08
4.2297e-08
4.42469e-08
3.83504e-08
4.24834e-08
4.83405e-08
4.58882e-08
5.21597e-08
5.00609e-08
4.05901e-08
3.81885e-08
4.2455e-08
4.40741e-08
3.83362e-08
2.72573e-08
2.66497e-08
2.48414e-08
2.2642e-08
1.87933e-08
1.68428e-08
1.92164e-08
1.59543e-08
2.50251e-09
3.67439e-09
1.26209e-08
1.04105e-09
3.59088e-09
3.00901e-08
1.86281e-10
4.81959e-09
1.91291e-08
4.46017e-08
5.8104e-08
9.36431e-09
1.53083e-13
9.31521e-10
8.40104e-10
3.29436e-08
2.66111e-08
2.46859e-08
3.09233e-08
3.6145e-08
4.0835e-08
4.00186e-08
4.10708e-08
4.18546e-08
3.59392e-08
4.03486e-08
4.05924e-08
3.98723e-08
3.60128e-08
3.31215e-08
3.08918e-08
3.36056e-08
3.50891e-08
2.38658e-08
1.94262e-08
2.26725e-08
2.12962e-08
5.58047e-09
1.08415e-09
1.33425e-08
6.4847e-09
8.20087e-09
5.83251e-09
1.33081e-10
1.81085e-09
7.28229e-09
5.11524e-09
4.41748e-09
5.81099e-09
5.59724e-08
7.24044e-08
2.76062e-08
8.00835e-09
2.67191e-10
5.47174e-11
2.96245e-08
2.61673e-08
2.37873e-08
2.73379e-08
3.15591e-08
3.45371e-08
3.75764e-08
3.72202e-08
3.34646e-08
3.33167e-08
2.84637e-08
3.33582e-08
3.64352e-08
3.30387e-08
2.93562e-08
2.90635e-08
2.34889e-08
2.77877e-08
2.21417e-08
1.98696e-08
1.55548e-08
2.1367e-08
1.89461e-08
1.47533e-08
1.40814e-08
1.21466e-08
1.06012e-08
1.20375e-08
3.72755e-09
2.21364e-09
5.01886e-09
2.26707e-09
2.45654e-10
1.09938e-11
7.05103e-10
2.62718e-09
4.11194e-09
4.16142e-09
3.79873e-09
1.88688e-09
2.53353e-08
2.28046e-08
2.16426e-08
2.42951e-08
2.76747e-08
2.89161e-08
3.0651e-08
3.01846e-08
3.04989e-08
2.91106e-08
2.79954e-08
2.44489e-08
2.962e-08
2.87088e-08
2.673e-08
2.87543e-08
2.67369e-08
2.05953e-08
2.12887e-08
2.51012e-08
2.21775e-08
1.5661e-08
1.60777e-08
1.40692e-08
1.40966e-08
6.8058e-09
1.57068e-09
7.14543e-09
5.5189e-09
4.89512e-11
7.2654e-10
2.23222e-09
1.38693e-09
2.22605e-08
2.78912e-08
1.60583e-08
8.06363e-09
4.61448e-09
6.94026e-09
4.80175e-11
2.32739e-08
2.16613e-08
1.98236e-08
2.17355e-08
2.40051e-08
2.49569e-08
2.51517e-08
2.6089e-08
2.44892e-08
2.38808e-08
2.50147e-08
2.51457e-08
2.1013e-08
2.4808e-08
2.56884e-08
2.11757e-08
2.20012e-08
2.33847e-08
2.04524e-08
1.70021e-08
1.79802e-08
1.56558e-08
1.49238e-08
1.16934e-08
1.34334e-08
1.20761e-08
6.92811e-09
6.01165e-09
6.08892e-09
4.45662e-09
5.3929e-09
6.31846e-09
5.06448e-09
3.39381e-09
2.26917e-09
2.28661e-09
2.69896e-09
2.54689e-09
2.38012e-09
1.30924e-09
2.02392e-08
1.90524e-08
1.86373e-08
1.92701e-08
2.04063e-08
2.1701e-08
2.15332e-08
2.1077e-08
2.14639e-08
2.12899e-08
2.00619e-08
2.13683e-08
2.1882e-08
1.9087e-08
2.09309e-08
2.13163e-08
1.97052e-08
1.9215e-08
2.04044e-08
1.81688e-08
1.68039e-08
1.68073e-08
1.71013e-08
1.40176e-08
1.15789e-08
1.13099e-08
1.14312e-08
1.06641e-08
8.42576e-09
5.52059e-09
3.17024e-09
2.0423e-09
2.74776e-09
3.92281e-09
4.67199e-09
4.52012e-09
3.85594e-09
2.8027e-09
1.96614e-09
9.69633e-10
1.83546e-08
1.76312e-08
1.66874e-08
1.72488e-08
1.78963e-08
1.78453e-08
1.85601e-08
1.84234e-08
1.74546e-08
1.82955e-08
1.84346e-08
1.71505e-08
1.86452e-08
1.88787e-08
1.72408e-08
1.78602e-08
1.94278e-08
1.77433e-08
1.68119e-08
1.79165e-08
1.76238e-08
1.50546e-08
1.35373e-08
1.37455e-08
1.36261e-08
1.18623e-08
9.10878e-09
6.78645e-09
6.0272e-09
5.96522e-09
5.89215e-09
5.74377e-09
5.36438e-09
4.59624e-09
3.61713e-09
2.66867e-09
1.98611e-09
1.38637e-09
1.08502e-09
5.8217e-10
1.64894e-08
1.58462e-08
1.5285e-08
1.52202e-08
1.54342e-08
1.56788e-08
1.52511e-08
1.52907e-08
1.56653e-08
1.50633e-08
1.54856e-08
1.62569e-08
1.5324e-08
1.55829e-08
1.69718e-08
1.61905e-08
1.57334e-08
1.71753e-08
1.747e-08
1.61493e-08
1.56043e-08
1.57995e-08
1.51306e-08
1.33275e-08
1.16693e-08
1.08645e-08
1.03042e-08
9.21641e-09
7.73089e-09
6.08296e-09
4.7658e-09
4.01618e-09
3.85212e-09
3.82445e-09
3.74761e-09
3.35918e-09
2.89959e-09
2.21446e-09
1.84515e-09
1.22064e-09
1.50144e-08
1.44381e-08
1.3721e-08
1.34925e-08
1.33686e-08
1.31504e-08
1.3187e-08
1.29995e-08
1.28066e-08
1.33247e-08
1.34061e-08
1.32879e-08
1.39208e-08
1.39169e-08
1.36866e-08
1.4523e-08
1.50731e-08
1.46537e-08
1.47175e-08
1.51435e-08
1.46454e-08
1.32249e-08
1.21487e-08
1.14446e-08
1.06547e-08
9.24385e-09
7.55525e-09
5.96473e-09
5.05919e-09
4.62927e-09
4.54382e-09
4.37752e-09
4.1257e-09
3.58807e-09
2.94162e-09
2.21096e-09
1.58452e-09
1.04186e-09
7.38234e-10
3.95401e-10
1.39053e-08
1.32582e-08
1.25295e-08
1.20573e-08
1.17693e-08
1.15439e-08
1.13267e-08
1.13594e-08
1.15647e-08
1.1714e-08
1.20901e-08
1.22931e-08
1.20158e-08
1.18365e-08
1.14927e-08
1.04419e-08
9.43843e-09
8.67701e-09
7.41023e-09
5.7471e-09
4.52458e-09
3.70335e-09
2.97544e-09
2.12587e-09
1.44423e-09
1.03217e-09
9.15791e-10
8.85325e-10
9.53942e-10
9.13953e-10
8.4768e-10
6.99709e-10
6.3757e-10
5.24314e-10
5.18518e-10
4.2171e-10
4.51529e-10
3.56063e-10
3.94993e-10
3.34116e-10
1.25782e-08
1.20182e-08
1.1263e-08
1.06458e-08
1.02182e-08
9.97051e-09
9.80642e-09
9.71812e-09
9.67046e-09
9.4817e-09
8.82285e-09
7.62694e-09
5.78424e-09
3.49949e-09
1.56983e-09
4.66846e-10
4.47695e-11
5.465e-13
4.8014e-11
1.286e-10
1.95975e-10
2.81357e-10
3.04935e-10
2.43764e-10
1.38151e-10
5.67554e-11
1.61879e-11
4.80414e-12
1.01071e-12
2.53513e-14
1.05699e-12
7.82827e-12
2.14645e-11
3.06202e-11
3.17911e-11
2.63468e-11
1.86456e-11
1.18562e-11
7.12403e-12
3.05941e-12
2.32089e-09
2.03978e-09
1.84581e-09
1.80025e-09
1.83427e-09
1.9249e-09
1.98505e-09
1.97171e-09
1.85156e-09
1.59806e-09
1.23923e-09
7.88207e-10
3.62391e-10
1.08945e-10
1.10559e-11
1.06525e-12
4.72285e-11
1.57883e-10
2.48394e-10
2.99401e-10
3.06351e-10
2.48106e-10
1.52258e-10
8.34104e-11
4.64969e-11
2.51502e-11
9.51925e-12
2.02497e-12
9.23601e-14
9.25914e-14
6.36582e-13
1.11444e-12
1.44837e-12
1.20307e-12
1.35324e-12
1.02363e-12
1.35583e-12
1.00097e-12
1.24027e-12
7.58018e-13
1.90454e-11
1.65786e-11
1.83841e-11
2.38942e-11
3.08856e-11
3.87701e-11
4.61223e-11
5.2889e-11
5.74208e-11
5.29678e-11
4.23573e-11
2.96972e-11
1.42121e-11
3.22384e-12
1.75537e-13
6.91436e-13
6.759e-12
2.1525e-11
3.47384e-11
3.79547e-11
3.37665e-11
2.629e-11
1.65404e-11
7.66063e-12
2.51002e-12
5.72029e-13
5.74409e-14
6.37478e-16
2.12226e-14
9.43614e-14
2.46802e-13
3.71602e-13
4.71651e-13
4.25994e-13
3.66058e-13
2.51693e-13
1.70941e-13
9.71067e-14
4.82451e-14
2.1687e-14
2.96945e-14
1.45128e-14
3.06095e-14
6.7832e-14
1.23768e-13
1.99041e-13
2.9628e-13
3.99398e-13
5.00767e-13
5.43217e-13
4.6759e-13
3.28289e-13
1.39336e-13
1.54638e-14
4.47423e-14
4.20276e-13
1.26521e-12
2.00343e-12
1.9237e-12
1.10993e-12
3.72729e-13
6.89586e-14
3.75462e-15
3.95446e-15
2.31368e-14
4.4538e-14
6.19979e-14
6.52075e-14
5.48011e-14
3.64962e-14
2.0639e-14
9.87972e-15
4.28507e-15
1.77908e-15
8.27561e-16
4.11969e-16
4.40864e-16
1.54232e-16
8.15868e-16
7.65561e-16
)
;

boundaryField
{
    inlet
    {
        type            calculated;
        value           nonuniform List<scalar> 
20
(
1.75465e-34
2.79633e-32
2.30128e-32
1.45459e-32
1.14674e-32
9.93553e-33
8.63006e-33
7.31458e-33
5.95075e-33
4.50875e-33
3.30959e-33
2.76178e-33
2.64594e-33
2.14994e-33
1.14688e-33
1.47891e-33
4.74468e-34
7.20011e-33
6.08474e-33
1.48049e-34
)
;
    }
    outlet
    {
        type            calculated;
        value           nonuniform List<scalar> 
27
(
1.9967e-33
4.45113e-33
5.378e-38
1.07486e-32
1.24085e-33
6.62311e-33
1.45309e-32
7.41784e-33
6.75046e-35
1.80224e-35
1.07951e-33
4.89087e-33
1.22339e-33
6.35478e-33
2.98802e-33
2.82998e-33
1.51877e-36
1.20469e-39
2.20225e-36
2.87425e-37
4.58936e-37
1.43044e-36
9.98946e-40
2.15847e-35
2.64221e-34
2.79853e-34
4.48419e-35
)
;
    }
    lowerWall
    {
        type            fixedValue;
        value           uniform 0;
    }
    upperWall
    {
        type            fixedValue;
        value           uniform 0;
    }
    defaultFaces
    {
        type            empty;
    }
}


// ************************************************************************* //
