/*--------------------------------*- C++ -*----------------------------------*\
| =========                 |                                                 |
| \\      /  F ield         | OpenFOAM: The Open Source CFD Toolbox           |
|  \\    /   O peration     | Version:  2112                                  |
|   \\  /    A nd           | Website:  www.openfoam.com                      |
|    \\/     M anipulation  |                                                 |
\*---------------------------------------------------------------------------*/
FoamFile
{
    version     2.0;
    format      ascii;
    arch        "LSB;label=32;scalar=64";
    class       volScalarField;
    location    "0.34";
    object      p;
}
// * * * * * * * * * * * * * * * * * * * * * * * * * * * * * * * * * * * * * //

dimensions      [0 2 -2 0 0 0 0];

internalField   nonuniform List<scalar> 
1880
(
0.00319736
0.00306633
0.00297317
0.00292444
0.00289566
0.0028751
0.0028561
0.00283767
0.00282086
0.00280954
0.00279862
0.00279303
0.00278943
0.00278831
0.00279252
0.00280063
0.00281507
0.00283249
0.00286
0.00288859
0.00293503
0.00298291
0.00303983
0.0031202
0.00319069
0.00329445
0.00341581
0.00352494
0.00367605
0.00376856
0.00301699
0.0029895
0.00294706
0.00290991
0.00288173
0.00285947
0.00284327
0.00282584
0.00281229
0.00280077
0.00278992
0.00278252
0.00277844
0.00277674
0.00277808
0.00278795
0.00279553
0.00281708
0.00282997
0.00286913
0.00290061
0.00295205
0.00299832
0.00306756
0.0031339
0.00322914
0.00333788
0.0034544
0.00359315
0.00372519
0.00298401
0.00296611
0.00293605
0.00290371
0.00287595
0.00285262
0.00283546
0.00281853
0.00280496
0.00279414
0.00278145
0.00277228
0.00276749
0.00276392
0.002763
0.00276722
0.00277554
0.00278902
0.00280138
0.00282786
0.00285462
0.00289421
0.0029302
0.00298744
0.00303827
0.00310587
0.00318707
0.00324608
0.00333246
0.0033838
0.00292628
0.00291672
0.00290129
0.00287898
0.00285768
0.00283684
0.00282077
0.00280387
0.00279045
0.00278024
0.00276635
0.00275758
0.00274922
0.00274648
0.00273939
0.00274193
0.00274565
0.00275333
0.00276086
0.00277576
0.00279846
0.00281982
0.00285155
0.00288267
0.00291712
0.00296126
0.00300046
0.00302874
0.00307365
0.00307257
0.00289793
0.00289077
0.00288109
0.00286377
0.00284601
0.00282654
0.00281049
0.0027933
0.00277892
0.00276789
0.0027532
0.00274219
0.00273232
0.00272677
0.00271654
0.00271414
0.0027134
0.00271609
0.00271665
0.00272346
0.00273555
0.00274708
0.00276284
0.00277674
0.00279431
0.00281098
0.00282126
0.00282345
0.00281386
0.00278076
0.00287062
0.00286419
0.00285707
0.0028434
0.00282837
0.00281137
0.00279605
0.00277917
0.00276379
0.00275231
0.00273651
0.00272332
0.00271237
0.00270301
0.00269112
0.00268174
0.00267878
0.00267432
0.00266916
0.00266628
0.0026692
0.0026696
0.00267109
0.0026693
0.00266809
0.00266181
0.00264899
0.00261815
0.00257925
0.00251697
0.00285004
0.00284411
0.00283864
0.00282724
0.00281405
0.00279861
0.00278363
0.00276666
0.00275007
0.00273763
0.00272019
0.00270502
0.00269168
0.00267965
0.0026642
0.00265008
0.00264243
0.00263179
0.00262004
0.00260878
0.0026018
0.00259227
0.00257971
0.00256343
0.00254497
0.00251977
0.00248387
0.00243235
0.00236696
0.00228091
0.00283305
0.00282772
0.00282273
0.00281258
0.00279999
0.00278554
0.00277052
0.00275322
0.00273567
0.00272164
0.00270322
0.0026848
0.00267025
0.00265413
0.00263604
0.00261705
0.00260426
0.0025884
0.00256942
0.0025505
0.0025345
0.00251393
0.00249021
0.0024602
0.00242698
0.00238481
0.00233143
0.00226129
0.00217561
0.00207088
0.00281972
0.0028147
0.00280981
0.00280026
0.0027878
0.0027738
0.00275833
0.0027406
0.00272171
0.00270638
0.00268619
0.00266525
0.00264854
0.00262899
0.00260767
0.00258399
0.00256646
0.00254526
0.00251926
0.00249339
0.00246822
0.0024386
0.00240416
0.00236194
0.00231574
0.00225965
0.00219072
0.00210595
0.00200487
0.00188577
0.00280967
0.00280502
0.00279987
0.0027904
0.00277758
0.00276338
0.00274732
0.00272849
0.00270856
0.00269124
0.00266964
0.00264585
0.00262689
0.00260423
0.00257903
0.00255171
0.00252882
0.00250277
0.00247044
0.00243718
0.00240476
0.00236624
0.00232218
0.00226974
0.00221199
0.0021441
0.00206295
0.00196613
0.00185365
0.00172358
0.00280305
0.00279859
0.00279292
0.00278312
0.00276948
0.00275468
0.00273752
0.00271744
0.00269609
0.00267696
0.00265359
0.00262721
0.00260577
0.00258011
0.0025512
0.00252015
0.00249229
0.00246181
0.0024233
0.00238354
0.00234431
0.00229789
0.00224551
0.00218404
0.0021163
0.00203911
0.00194785
0.00184142
0.00172044
0.00158237
0.00279995
0.00279553
0.00278913
0.00277857
0.00276385
0.00274789
0.0027295
0.00270774
0.002685
0.00266392
0.00263869
0.00260991
0.00258569
0.00255747
0.0025246
0.00249013
0.00245782
0.00242277
0.00237911
0.00233304
0.00228774
0.00223469
0.0021745
0.00210553
0.00202945
0.00194425
0.00184536
0.00173147
0.00160413
0.00146052
0.00280073
0.00279602
0.00278851
0.00277665
0.00276022
0.00274253
0.00272232
0.00269867
0.00267427
0.00265153
0.00262448
0.00259345
0.00256657
0.0025358
0.00249927
0.00246154
0.00242524
0.00238598
0.00233758
0.00228592
0.00223525
0.00217644
0.00210952
0.00203429
0.00195118
0.00185954
0.00175473
0.00163506
0.00150284
0.00135538
0.00280609
0.00280105
0.0027923
0.00277887
0.00276053
0.00274085
0.00271877
0.0026933
0.00266759
0.00264224
0.00261283
0.00257964
0.00254988
0.00251649
0.00247647
0.00243556
0.00239586
0.00235232
0.00229963
0.00224313
0.00218751
0.00212395
0.0020511
0.00197039
0.00188181
0.00178486
0.00167551
0.00155158
0.00141587
0.00126647
0.00281598
0.00280955
0.00279835
0.0027819
0.0027605
0.00273793
0.00271346
0.00268591
0.00265849
0.00263165
0.00260042
0.00256548
0.00253331
0.00249748
0.00245466
0.00241126
0.00236868
0.00232123
0.00226464
0.00220413
0.00214432
0.00207669
0.00199886
0.0019136
0.00182067
0.00171939
0.00160649
0.00147958
0.00134142
0.00119044
0.002835
0.00282721
0.0028129
0.00279249
0.00276713
0.00274117
0.00271416
0.00268467
0.00265571
0.00262697
0.00259367
0.00255679
0.00252188
0.0024833
0.00243754
0.00239146
0.00234589
0.00229445
0.00223425
0.00217056
0.00210687
0.00203544
0.00195334
0.00186409
0.00176777
0.00166303
0.00154739
0.00141864
0.00127916
0.00112847
0.00285563
0.0028436
0.00282343
0.00279738
0.00276794
0.00273917
0.00271047
0.00267976
0.00264948
0.00261891
0.00258363
0.00254506
0.00250774
0.00246669
0.00241917
0.00237153
0.00232361
0.00226876
0.00220581
0.00214008
0.00207328
0.00199857
0.00191331
0.00182099
0.0017219
0.00161429
0.00149641
0.00136666
0.00122645
0.00107491
0.00290895
0.00288658
0.00285237
0.00281496
0.00277867
0.00274616
0.00271555
0.00268346
0.00265129
0.00261818
0.00258064
0.00254046
0.00250098
0.00245784
0.00240912
0.00235978
0.00230901
0.00225101
0.00218583
0.00211782
0.00204711
0.00196872
0.00188069
0.0017858
0.00168441
0.00157461
0.00145522
0.00132547
0.00118618
0.00103671
0.00293782
0.00290328
0.00285841
0.00281595
0.00277784
0.0027452
0.00271416
0.00268104
0.00264726
0.00261213
0.00257336
0.0025326
0.0024909
0.00244536
0.00239604
0.00234577
0.00229197
0.00223033
0.00216318
0.00209402
0.00202098
0.00194094
0.00185245
0.0017555
0.00165076
0.00153762
0.00141622
0.00128694
0.00114898
0.00100099
0.00311746
0.00297771
0.00288053
0.00282651
0.00279032
0.00275735
0.00272328
0.00268705
0.00265051
0.00261313
0.00257367
0.00253307
0.00249037
0.0024438
0.00239401
0.00234215
0.00228641
0.00222462
0.00215775
0.00208693
0.00201093
0.00192897
0.00183962
0.00174234
0.00163699
0.00152358
0.00140208
0.00127346
0.0011369
0.000991792
0.00390599
0.00372717
0.00348039
0.00303502
0.00231648
0.00178788
0.000856492
8.70973e-05
-0.00123552
-0.0026723
0.003788
0.00349727
0.00307131
0.00256043
0.00185247
0.00129681
0.000386729
-0.000482185
-0.00155688
-0.00300841
0.00340433
0.00310329
0.00269952
0.00231603
0.00161773
0.00111079
0.000256318
-0.000494779
-0.00152647
-0.00256825
0.00305682
0.0027866
0.00238707
0.00191256
0.00132445
0.000742728
1.80165e-05
-0.000779811
-0.001606
-0.00255638
0.00272593
0.00245396
0.00203978
0.00164943
0.00110069
0.000580277
-7.83207e-05
-0.000829992
-0.00157797
-0.00238514
0.00243374
0.00216584
0.00180488
0.00137852
0.00090482
0.000359569
-0.000220342
-0.000913811
-0.00159038
-0.00228482
0.00217451
0.0019201
0.00155723
0.00116894
0.000729434
0.000234781
-0.000301543
-0.000927757
-0.00154776
-0.0021527
0.00194934
0.0016974
0.00136962
0.000986754
0.000584957
0.000112816
-0.000387472
-0.000949507
-0.00151006
-0.00204662
0.00175004
0.00151112
0.0011955
0.000836763
0.000459419
2.7995e-05
-0.000439091
-0.000949699
-0.00145455
-0.00193835
0.00157917
0.0013478
0.00105329
0.000712719
0.000357692
-4.32706e-05
-0.000479892
-0.00094518
-0.00139925
-0.00183795
0.00142978
0.00120882
0.000929001
0.000608857
0.000273072
-9.81728e-05
-0.000503137
-0.000928353
-0.0013423
-0.00174426
0.0013035
0.00109102
0.0008269
0.000525368
0.000207251
-0.000139779
-0.000515573
-0.000906525
-0.0012857
-0.00165514
0.00119401
0.000989145
0.000738821
0.000454709
0.000153348
-0.000171792
-0.000520551
-0.000880698
-0.00123158
-0.00157411
0.00110419
0.000906533
0.00066924
0.000400807
0.000114724
-0.00019194
-0.000517229
-0.000851472
-0.00117865
-0.00149855
0.00102568
0.000833077
0.000607576
0.000353857
8.24771e-05
-0.000207016
-0.000511446
-0.000823254
-0.00113044
-0.00143135
0.000965537
0.000778833
0.000563632
0.000322395
6.37258e-05
-0.000211362
-0.000499027
-0.000793238
-0.00108453
-0.00137038
0.000910719
0.000727571
0.00052189
0.000293195
4.74835e-05
-0.000213662
-0.00048643
-0.000765782
-0.00104388
-0.00131743
0.000875631
0.000697193
0.000498754
0.000279294
4.31873e-05
-0.000207708
-0.000469682
-0.000738649
-0.00100748
-0.00127214
0.00084171
0.000667841
0.000477358
0.000268535
4.29568e-05
-0.000198201
-0.000450539
-0.000710982
-0.000973388
-0.00123206
0.000835944
0.000663978
0.000475392
0.000269499
4.74684e-05
-0.000189913
-0.000438392
-0.000695601
-0.000955467
-0.00121446
-0.00559729
-0.00585158
-0.00592746
-0.00598074
-0.00668207
-0.00878945
-0.0114088
-0.0131375
-0.0137081
-0.0130317
-0.0114262
-0.00911738
-0.00652709
-0.00381725
-0.00130935
0.000644622
0.0019929
0.00267476
0.00287987
0.00279737
0.00258071
0.00231151
0.00203449
0.00177197
0.00153321
0.00131781
0.00112288
0.000945035
0.000785225
0.000644044
0.00052222
0.000419717
0.000334552
0.000264355
0.000205976
0.00015686
0.000114576
7.73599e-05
4.4206e-05
1.37139e-05
-0.00574987
-0.00603112
-0.00604916
-0.00607534
-0.00732849
-0.0098101
-0.0123875
-0.0139791
-0.0144248
-0.0136329
-0.011911
-0.00954466
-0.00691832
-0.00422187
-0.00164467
0.000384568
0.00180331
0.00252126
0.00275609
0.00269673
0.00249929
0.00224726
0.0019842
0.00173217
0.0015006
0.00129082
0.00109939
0.000925083
0.000768823
0.00063124
0.000513078
0.000413815
0.000331308
0.000262998
0.000206045
0.00015772
0.000115943
7.87704e-05
4.53404e-05
1.44144e-05
-0.00557633
-0.00583357
-0.00613651
-0.00676082
-0.00844803
-0.0111454
-0.013684
-0.015177
-0.0155209
-0.0145946
-0.0126907
-0.0102389
-0.00759099
-0.00492088
-0.00229699
-0.000136438
0.0013845
0.00219552
0.00248188
0.00246274
0.00230354
0.00208705
0.00185299
0.00162456
0.00141349
0.00122187
0.00104692
0.00088863
0.000746002
0.000619794
0.000510414
0.000416832
0.000337406
0.000270239
0.000213109
0.000163894
0.000120911
8.2539e-05
4.78019e-05
1.55357e-05
-0.00527661
-0.00533904
-0.00535734
-0.00663217
-0.00925593
-0.0124221
-0.0150182
-0.0164743
-0.0167051
-0.0156226
-0.013506
-0.0109274
-0.00826623
-0.00565632
-0.00303428
-0.000799741
0.000818018
0.00173508
0.00209944
0.00213978
0.00203573
0.00187289
0.0016844
0.00149047
0.00130607
0.00113663
0.000980692
0.000838192
0.000711093
0.000595887
0.000495527
0.000408315
0.000332726
0.000267837
0.000212161
0.000163879
0.000121432
8.3302e-05
4.84149e-05
1.5883e-05
-0.00530431
-0.00563922
-0.00552919
-0.00702306
-0.00968086
-0.0129112
-0.0156129
-0.0172157
-0.0174489
-0.0163416
-0.0140934
-0.0114014
-0.00874641
-0.0061932
-0.00366411
-0.00143704
0.00021552
0.00119489
0.00163966
0.00175741
0.00171917
0.00161529
0.00148027
0.00133105
0.00118116
0.0010373
0.000901537
0.000776094
0.000662028
0.000563122
0.000473985
0.00039503
0.000325247
0.000264161
0.000210618
0.000163492
0.000121581
8.36867e-05
4.87957e-05
1.60777e-05
-0.00476964
-0.00553178
-0.00480678
-0.00661618
-0.009536
-0.0128359
-0.0157569
-0.0174628
-0.0177242
-0.0165406
-0.0142469
-0.0115701
-0.00895639
-0.00647479
-0.00405597
-0.00191965
-0.000315213
0.000658322
0.00115375
0.00135301
0.00139399
0.00135601
0.00127291
0.00116624
0.00105185
0.000937357
0.000824306
0.000715794
0.000616621
0.000528731
0.000449529
0.000377473
0.000312654
0.000254873
0.000203796
0.000158704
0.000118304
8.16256e-05
4.76969e-05
1.57433e-05
-0.00486122
-0.00556354
-0.00456486
-0.00642724
-0.00904952
-0.0121384
-0.0148646
-0.0165327
-0.0168564
-0.0158595
-0.0138239
-0.01137
-0.00891297
-0.00656967
-0.00427897
-0.00225217
-0.000723649
0.000215212
0.000720441
0.000972264
0.00107677
0.00110025
0.00107089
0.00100674
0.000924727
0.000835754
0.000743412
0.000651
0.00056375
0.00048577
0.00041629
0.000353479
0.000296292
0.000243876
0.000196243
0.000153156
0.000114338
7.91274e-05
4.6189e-05
1.52418e-05
-0.00481558
-0.00370264
-0.00423983
-0.00594689
-0.0085098
-0.0110769
-0.0134481
-0.0150218
-0.0154543
-0.0147135
-0.0130316
-0.0108844
-0.00863932
-0.00645107
-0.00433491
-0.00248601
-0.00109052
-0.000184909
0.000347976
0.000649117
0.000802603
0.000864522
0.000872405
0.000845897
0.000796569
0.000731684
0.000657505
0.000580876
0.000507726
0.000440597
0.0003788
0.000321382
0.000269483
0.00022296
0.000180742
0.000142065
0.000106647
7.38397e-05
4.34475e-05
1.44249e-05
-0.00399926
-0.00461516
-0.00503353
-0.00611847
-0.00816022
-0.010344
-0.0123487
-0.0136754
-0.0140101
-0.0133669
-0.0119584
-0.0100824
-0.00805328
-0.00605802
-0.00417479
-0.00257189
-0.00138013
-0.000577022
-3.64558e-05
0.000317331
0.000536211
0.000647196
0.00068509
0.000683865
0.000660708
0.000619546
0.000563768
0.000502119
0.00044215
0.000386222
0.000335047
0.000288733
0.000245954
0.00020536
0.000167323
0.000132065
9.94268e-05
6.89374e-05
4.04813e-05
1.34249e-05
-0.00353142
-0.0041409
-0.00475983
-0.0059374
-0.00765741
-0.00938326
-0.0108923
-0.0119196
-0.012225
-0.0117315
-0.0105506
-0.00895435
-0.00719719
-0.00548416
-0.00392639
-0.00259584
-0.00156494
-0.000843974
-0.00033615
1.7798e-05
0.000253306
0.000400597
0.000480177
0.000512912
0.00051479
0.000495907
0.000461115
0.000417177
0.000371533
0.00032797
0.000285354
0.000243417
0.000204779
0.000171286
0.000141596
0.000113721
8.6885e-05
6.11854e-05
3.62275e-05
1.20448e-05
-0.00328142
-0.00393051
-0.0046931
-0.00570757
-0.00699356
-0.008276
-0.0093787
-0.0101322
-0.0103541
-0.00998432
-0.00907183
-0.00779348
-0.00636527
-0.0049798
-0.00371871
-0.00261792
-0.00172134
-0.00104998
-0.000563398
-0.000213496
2.764e-05
0.000181672
0.000277179
0.000335457
0.000363252
0.000366592
0.000351877
0.000327095
0.000300748
0.000271968
0.00023968
0.000207816
0.000179064
0.000152052
0.0001256
0.000100072
7.60052e-05
5.33315e-05
3.1641e-05
1.04245e-05
-0.00303575
-0.00365247
-0.00439707
-0.00527584
-0.00623942
-0.00720309
-0.0080332
-0.00860024
-0.00878598
-0.00851433
-0.0078218
-0.00684454
-0.0057265
-0.00460042
-0.00355645
-0.00262157
-0.00183085
-0.00122036
-0.00076986
-0.000432902
-0.000181713
-7.59776e-06
0.000108194
0.000184262
0.000228845
0.000247986
0.000248525
0.000238802
0.000224916
0.000208036
0.000187466
0.000163421
0.000138686
0.000116275
9.68682e-05
7.91979e-05
6.20517e-05
4.45722e-05
2.67062e-05
9.01693e-06
-0.00283683
-0.00340555
-0.0040945
-0.00484931
-0.00561074
-0.00636499
-0.00701923
-0.00744808
-0.00756932
-0.00735858
-0.00683064
-0.00607526
-0.00519336
-0.00426742
-0.00338162
-0.00259547
-0.00191853
-0.00136531
-0.000935821
-0.00060589
-0.000353321
-0.000166778
-3.57667e-05
5.22257e-05
0.000109713
0.000146119
0.000165611
0.000169754
0.000164603
0.000156219
0.000143768
0.00012812
0.000113659
0.000101977
8.99018e-05
7.47839e-05
5.71153e-05
3.93702e-05
2.31491e-05
7.63631e-06
-0.00266315
-0.0031838
-0.00378619
-0.00443715
-0.00506789
-0.00566259
-0.00616433
-0.00648754
-0.00658855
-0.0064365
-0.00602988
-0.00543339
-0.0047273
-0.00397806
-0.00324213
-0.00256596
-0.00197142
-0.00147149
-0.00107307
-0.000760143
-0.000515731
-0.000330301
-0.000192911
-9.10786e-05
-1.84885e-05
3.10195e-05
6.42298e-05
8.44453e-05
9.37307e-05
9.45773e-05
9.08158e-05
8.4806e-05
7.60298e-05
6.51809e-05
5.40356e-05
4.47199e-05
3.68005e-05
2.86924e-05
1.90325e-05
6.51358e-06
-0.00250443
-0.00297655
-0.00350346
-0.00406684
-0.00459956
-0.00507787
-0.00547438
-0.00573561
-0.00581815
-0.00570665
-0.00539072
-0.00491161
-0.00433828
-0.00372318
-0.00310944
-0.00253085
-0.00200775
-0.00155725
-0.00119135
-0.000897536
-0.00065866
-0.000469056
-0.000323002
-0.000210641
-0.000125429
-6.3417e-05
-1.96187e-05
1.04811e-05
3.01357e-05
4.35866e-05
5.25743e-05
5.42679e-05
4.93409e-05
4.3128e-05
3.75434e-05
3.20178e-05
2.60054e-05
1.88446e-05
1.06985e-05
3.71636e-06
-0.00235858
-0.00278576
-0.00324749
-0.00373448
-0.00419012
-0.00458586
-0.00490721
-0.00511847
-0.00518839
-0.00510434
-0.00485706
-0.00447309
-0.00400585
-0.00349779
-0.00298162
-0.00248702
-0.0020311
-0.00162661
-0.00128632
-0.00100771
-0.000777495
-0.000587692
-0.000435594
-0.000317215
-0.000225461
-0.000153923
-9.86223e-05
-5.84976e-05
-3.10878e-05
-1.21202e-05
1.64358e-06
1.07368e-05
1.6206e-05
2.07537e-05
2.445e-05
2.50446e-05
2.26127e-05
1.81148e-05
1.18093e-05
4.13228e-06
-0.00222293
-0.00261046
-0.00301838
-0.00344187
-0.00383751
-0.00417605
-0.00444398
-0.00461707
-0.00467706
-0.00461381
-0.0044189
-0.00410986
-0.00372616
-0.00330308
-0.00286633
-0.00244132
-0.00204489
-0.0016852
-0.00137195
-0.00110805
-0.000887146
-0.000702833
-0.000549848
-0.000424554
-0.000324381
-0.000245617
-0.000182126
-0.000130177
-9.01089e-05
-5.84377e-05
-3.54808e-05
-2.02945e-05
-9.87815e-06
-3.69679e-06
-1.11069e-07
1.74648e-06
2.3344e-06
1.94435e-06
1.05063e-06
2.30584e-07
-0.00209939
-0.00245104
-0.00281485
-0.00318637
-0.00353206
-0.00382598
-0.00405496
-0.00420188
-0.00425381
-0.00420478
-0.00405067
-0.0038022
-0.00348652
-0.00313303
-0.00276406
-0.00239821
-0.00205006
-0.00172828
-0.00144131
-0.00119361
-0.000980871
-0.000798358
-0.000644085
-0.000514784
-0.000406418
-0.000316442
-0.000243954
-0.000187453
-0.000142256
-0.00010674
-7.74349e-05
-5.37621e-05
-3.45521e-05
-1.9584e-05
-8.60829e-06
-1.2545e-06
2.83703e-06
4.47094e-06
3.91624e-06
1.62887e-06
-0.00198553
-0.0023079
-0.00263562
-0.00296427
-0.00327015
-0.00352971
-0.00372838
-0.00385682
-0.00390503
-0.00386824
-0.00374378
-0.00354144
-0.00328235
-0.00298718
-0.00267389
-0.0023581
-0.00205249
-0.00176583
-0.00150443
-0.00127224
-0.00106883
-0.000890964
-0.000736171
-0.000603164
-0.000490891
-0.000397101
-0.000317711
-0.000249615
-0.000193489
-0.00014797
-0.000111551
-8.28517e-05
-6.10779e-05
-4.46585e-05
-3.22165e-05
-2.28453e-05
-1.5759e-05
-1.04258e-05
-6.04676e-06
-2.15729e-06
-0.00188306
-0.00218059
-0.00247828
-0.00277286
-0.00304553
-0.00327655
-0.00345367
-0.00356749
-0.00361226
-0.00358581
-0.00348634
-0.00332122
-0.00310744
-0.00286059
-0.00259397
-0.00232199
-0.00205532
-0.00179969
-0.0015608
-0.00134307
-0.00114735
-0.000973021
-0.00081876
-0.000682296
-0.000562027
-0.000458089
-0.00037049
-0.000297729
-0.000236923
-0.000186162
-0.000143839
-0.000108304
-7.9102e-05
-5.58364e-05
-3.77952e-05
-2.41811e-05
-1.43596e-05
-7.52057e-06
-3.15881e-06
-5.33144e-07
-0.00179058
-0.00206823
-0.00234181
-0.00260829
-0.00285368
-0.00306185
-0.00322128
-0.00332494
-0.00336829
-0.00334911
-0.00326957
-0.00313571
-0.0029581
-0.00275079
-0.00252621
-0.00229328
-0.00205915
-0.00183105
-0.0016142
-0.00141135
-0.00122357
-0.00105174
-0.000896226
-0.000756423
-0.000632358
-0.000524292
-0.000430684
-0.000348964
-0.000278642
-0.000219967
-0.000171687
-0.000132569
-0.000101218
-7.62635e-05
-5.6577e-05
-4.10945e-05
-2.87824e-05
-1.88813e-05
-1.07234e-05
-3.92672e-06
-0.0017087
-0.0019703
-0.00222434
-0.00246844
-0.00269136
-0.00287977
-0.00302544
-0.0031202
-0.00316208
-0.00315051
-0.00308662
-0.00297663
-0.00283088
-0.00265877
-0.00246855
-0.00226864
-0.00206591
-0.0018647
-0.00166797
-0.00147765
-0.00129584
-0.001126
-0.000970009
-0.000826733
-0.000695764
-0.000578361
-0.000475855
-0.000387857
-0.00031281
-0.000248973
-0.0001953
-0.000150444
-0.000113518
-8.36895e-05
-5.99983e-05
-4.15312e-05
-2.73633e-05
-1.67203e-05
-8.64017e-06
-2.60695e-06
-0.00163673
-0.00188596
-0.00212444
-0.00235034
-0.00255557
-0.00272929
-0.00286109
-0.00294871
-0.00298965
-0.00298283
-0.00293164
-0.00284261
-0.00272262
-0.00257949
-0.00242082
-0.00225253
-0.00207817
-0.00190046
-0.00172204
-0.00154487
-0.00137045
-0.00120148
-0.00104105
-0.000891307
-0.000753991
-0.000631083
-0.000522885
-0.000427502
-0.000344161
-0.000273616
-0.000214725
-0.000166267
-0.000126938
-9.54618e-05
-7.05403e-05
-5.08664e-05
-3.53898e-05
-2.30693e-05
-1.29941e-05
-4.40993e-06
-0.00157499
-0.00181517
-0.00204172
-0.0022527
-0.00244188
-0.00260123
-0.00272335
-0.0028048
-0.00284387
-0.0028411
-0.00280029
-0.0027272
-0.00262911
-0.00251339
-0.002384
-0.00224316
-0.00209459
-0.00194044
-0.00178006
-0.00161364
-0.00144386
-0.00127503
-0.00111118
-0.000955315
-0.000809478
-0.000676879
-0.000559075
-0.000456165
-0.000367582
-0.000292035
-0.000228687
-0.00017637
-0.000133686
-9.93042e-05
-7.18883e-05
-5.02515e-05
-3.33754e-05
-2.03537e-05
-1.04659e-05
-3.0192e-06
-0.00152329
-0.00175782
-0.00197679
-0.00217723
-0.0023537
-0.00250001
-0.00261231
-0.00268764
-0.00272429
-0.00272339
-0.00268983
-0.00263012
-0.00255104
-0.00245852
-0.0023557
-0.00224289
-0.00212045
-0.00198655
-0.00183935
-0.00168007
-0.00151259
-0.0013417
-0.00117198
-0.00100851
-0.000855391
-0.000715075
-0.000589655
-0.000479941
-0.000385303
-0.00030486
-0.000237648
-0.000182526
-0.000137998
-0.000102462
-7.44834e-05
-5.25357e-05
-3.55569e-05
-2.23124e-05
-1.20205e-05
-3.74636e-06
-0.00147959
-0.00171071
-0.00192415
-0.00211698
-0.00228444
-0.00242213
-0.00252676
-0.00259612
-0.00262919
-0.00262875
-0.00260031
-0.00255063
-0.00248695
-0.00241492
-0.00233617
-0.00225073
-0.00215416
-0.00204
-0.00190383
-0.00174734
-0.00157661
-0.00139856
-0.00121959
-0.0010468
-0.000884882
-0.000737476
-0.000605854
-0.000490796
-0.000392007
-0.000308634
-0.000239335
-0.000182759
-0.000137112
-0.00010075
-7.20182e-05
-4.95012e-05
-3.21036e-05
-1.87847e-05
-9.07474e-06
-2.09251e-06
-0.00146417
-0.0016944
-0.00190375
-0.00209078
-0.00225278
-0.00238581
-0.00248635
-0.00255223
-0.00258318
-0.00258262
-0.00255595
-0.00250973
-0.00245183
-0.00238775
-0.00231837
-0.00224223
-0.00215467
-0.00204874
-0.00191892
-0.00176605
-0.00159645
-0.00141773
-0.00123728
-0.00106172
-0.00089675
-0.000746379
-0.000612436
-0.000495588
-0.000395266
-0.000310668
-0.000240294
-0.000182891
-0.000136628
-9.9993e-05
-7.12049e-05
-4.88636e-05
-3.17509e-05
-1.87327e-05
-9.23079e-06
-2.23748e-06
)
;

boundaryField
{
    inlet
    {
        type            zeroGradient;
    }
    outlet
    {
        type            fixedValue;
        value           uniform 0;
    }
    lowerWall
    {
        type            zeroGradient;
    }
    upperWall
    {
        type            zeroGradient;
    }
    defaultFaces
    {
        type            empty;
    }
}


// ************************************************************************* //
