/*--------------------------------*- C++ -*----------------------------------*\
| =========                 |                                                 |
| \\      /  F ield         | OpenFOAM: The Open Source CFD Toolbox           |
|  \\    /   O peration     | Version:  2112                                  |
|   \\  /    A nd           | Website:  www.openfoam.com                      |
|    \\/     M anipulation  |                                                 |
\*---------------------------------------------------------------------------*/
FoamFile
{
    version     2.0;
    format      ascii;
    arch        "LSB;label=32;scalar=64";
    class       surfaceScalarField;
    location    "0.34";
    object      phi;
}
// * * * * * * * * * * * * * * * * * * * * * * * * * * * * * * * * * * * * * //

dimensions      [0 3 -1 0 0 0 0];

oriented        oriented;

internalField   nonuniform List<scalar> 
3653
(
9.92152e-07
7.84759e-09
9.79402e-07
1.27509e-08
9.63596e-07
1.58059e-08
9.48477e-07
1.51183e-08
9.31614e-07
1.68636e-08
9.1526e-07
1.63533e-08
8.97312e-07
1.79485e-08
8.7989e-07
1.74217e-08
8.60779e-07
1.91117e-08
8.43207e-07
1.75713e-08
8.23565e-07
1.96424e-08
8.05517e-07
1.80482e-08
7.84693e-07
2.08241e-08
7.65625e-07
1.90673e-08
7.44679e-07
2.09464e-08
7.23679e-07
2.09995e-08
7.01491e-07
2.2188e-08
6.77665e-07
2.38269e-08
6.54791e-07
2.28731e-08
6.26798e-07
2.79932e-08
6.02979e-07
2.38194e-08
5.68941e-07
3.40373e-08
5.3915e-07
2.97917e-08
5.01774e-07
3.73753e-08
4.61519e-07
4.02553e-08
4.21094e-07
4.04249e-08
3.74291e-07
4.68037e-08
3.18588e-07
5.57022e-08
2.60818e-07
5.77709e-08
7.61135e-08
1.84704e-07
1.00268e-06
5.16451e-09
1.00674e-06
8.69806e-09
1.00846e-06
1.4084e-08
1.0107e-06
1.28801e-08
1.01093e-06
1.66327e-08
1.01186e-06
1.54241e-08
1.01135e-06
1.84555e-08
1.01128e-06
1.74935e-08
1.00923e-06
2.11591e-08
1.00866e-06
1.81429e-08
1.004e-06
2.42982e-08
1.00391e-06
1.81428e-08
9.97283e-07
2.74487e-08
9.95278e-07
2.10724e-08
9.88371e-07
2.78535e-08
9.82912e-07
2.6459e-08
9.75766e-07
2.93332e-08
9.69035e-07
3.05579e-08
9.5623e-07
3.5678e-08
9.50406e-07
3.38176e-08
9.30758e-07
4.34677e-08
9.22995e-07
4.17998e-08
9.01926e-07
5.08616e-08
8.8636e-07
5.29408e-08
8.58915e-07
6.77002e-08
8.3902e-07
6.03204e-08
7.9209e-07
9.37333e-08
7.67324e-07
8.04683e-08
7.04087e-07
1.21008e-07
1.28353e-07
6.51847e-07
1.00152e-06
3.64942e-09
1.00515e-06
5.06618e-09
1.00727e-06
1.1962e-08
1.01046e-06
9.68855e-09
1.01137e-06
1.57248e-08
1.01422e-06
1.2572e-08
1.01497e-06
1.77088e-08
1.01729e-06
1.51752e-08
1.01825e-06
2.01933e-08
1.01952e-06
1.68753e-08
1.02004e-06
2.3781e-08
1.02046e-06
1.7719e-08
1.02072e-06
2.71866e-08
1.02024e-06
2.15542e-08
1.02025e-06
2.78475e-08
1.018e-06
2.87092e-08
1.01733e-06
2.99993e-08
1.01448e-06
3.34032e-08
1.01036e-06
3.98055e-08
1.01018e-06
3.39991e-08
9.99447e-07
5.41962e-08
9.99676e-07
4.15711e-08
9.87057e-07
6.34806e-08
9.80505e-07
5.94925e-08
9.6879e-07
7.9415e-08
9.56461e-07
7.26496e-08
9.37526e-07
1.12668e-07
9.19402e-07
9.85919e-08
8.98531e-07
1.41879e-07
1.57602e-07
8.69281e-07
1.00089e-06
2.76348e-09
1.00253e-06
3.41826e-09
1.00462e-06
9.87415e-09
1.00655e-06
7.75645e-09
1.00825e-06
1.40287e-08
1.01012e-06
1.06979e-08
1.01135e-06
1.64862e-08
1.01336e-06
1.3157e-08
1.01446e-06
1.90945e-08
1.0162e-06
1.51356e-08
1.01704e-06
2.29484e-08
1.01811e-06
1.66468e-08
1.01876e-06
2.65384e-08
1.01976e-06
2.05553e-08
1.01891e-06
2.86947e-08
1.02066e-06
2.69541e-08
1.01747e-06
3.31931e-08
1.0198e-06
3.10743e-08
1.01583e-06
4.37694e-08
1.01596e-06
3.38757e-08
1.01295e-06
5.72042e-08
1.00965e-06
4.48696e-08
1.00588e-06
6.72521e-08
1.00171e-06
6.36625e-08
9.95821e-07
8.53035e-08
9.87777e-07
8.06934e-08
9.84598e-07
1.15847e-07
9.69582e-07
1.13608e-07
9.62938e-07
1.48524e-07
1.65321e-07
9.55219e-07
1.00057e-06
2.19755e-09
1.00138e-06
2.60238e-09
1.00339e-06
7.86877e-09
1.00453e-06
6.6116e-09
1.00686e-06
1.16967e-08
1.00771e-06
9.84813e-09
1.01007e-06
1.41335e-08
1.01072e-06
1.25013e-08
1.01304e-06
1.67756e-08
1.0137e-06
1.44776e-08
1.01555e-06
2.10954e-08
1.01627e-06
1.59274e-08
1.01729e-06
2.55183e-08
1.0184e-06
1.94499e-08
1.01836e-06
2.87335e-08
1.01961e-06
2.57067e-08
1.01858e-06
3.42231e-08
1.01951e-06
3.0139e-08
1.01783e-06
4.54481e-08
1.01799e-06
3.37226e-08
1.0163e-06
5.88849e-08
1.01469e-06
4.64852e-08
1.01269e-06
6.92486e-08
1.00979e-06
6.6561e-08
1.00713e-06
8.79663e-08
1.00318e-06
8.46469e-08
1.0005e-06
1.18527e-07
9.9723e-07
1.16875e-07
9.9445e-07
1.51304e-07
1.6578e-07
9.93991e-07
1.00056e-06
1.63748e-09
1.00098e-06
2.18215e-09
1.00263e-06
6.21947e-09
1.00355e-06
5.68733e-09
1.00556e-06
9.69133e-09
1.00663e-06
8.78034e-09
1.00854e-06
1.2222e-08
1.00964e-06
1.13996e-08
1.01156e-06
1.48514e-08
1.01246e-06
1.35837e-08
1.01457e-06
1.89878e-08
1.01501e-06
1.54805e-08
1.0169e-06
2.36279e-08
1.01754e-06
1.88145e-08
1.01839e-06
2.78775e-08
1.01951e-06
2.45921e-08
1.01971e-06
3.40188e-08
1.01982e-06
3.00362e-08
1.02096e-06
4.43055e-08
1.01911e-06
3.55698e-08
1.02083e-06
5.71628e-08
1.01867e-06
4.86457e-08
1.01889e-06
6.90308e-08
1.01733e-06
6.81264e-08
1.01761e-06
8.7684e-08
1.0145e-06
8.77526e-08
1.01723e-06
1.15803e-07
1.01505e-06
1.19057e-07
1.01782e-06
1.48532e-07
1.621e-07
1.0215e-06
1.0005e-06
1.14038e-09
1.00064e-06
2.0359e-09
1.0022e-06
4.66641e-09
1.00273e-06
5.15155e-09
1.0049e-06
7.5199e-09
1.0056e-06
8.08685e-09
1.00788e-06
9.93673e-09
1.00874e-06
1.05442e-08
1.01085e-06
1.27344e-08
1.01195e-06
1.24894e-08
1.01387e-06
1.70637e-08
1.01496e-06
1.43914e-08
1.01668e-06
2.19068e-08
1.01777e-06
1.77302e-08
1.01912e-06
2.65296e-08
1.02023e-06
2.3477e-08
1.0213e-06
3.29466e-08
1.02188e-06
2.94556e-08
1.02335e-06
4.28348e-08
1.02275e-06
3.61746e-08
1.02498e-06
5.49294e-08
1.02407e-06
4.9554e-08
1.0255e-06
6.76071e-08
1.02575e-06
6.78696e-08
1.02684e-06
8.65984e-08
1.02711e-06
8.74848e-08
1.03046e-06
1.12454e-07
1.03223e-06
1.17283e-07
1.03759e-06
1.43172e-07
1.55525e-07
1.04417e-06
1.0004e-06
7.4164e-10
1.0006e-06
1.83363e-09
1.00186e-06
3.41181e-09
1.00256e-06
4.44706e-09
1.00435e-06
5.72723e-09
1.00538e-06
7.06458e-09
1.00736e-06
7.9551e-09
1.00853e-06
9.37092e-09
1.01063e-06
1.06386e-08
1.01176e-06
1.13568e-08
1.01412e-06
1.47054e-08
1.015e-06
1.35098e-08
1.01742e-06
1.94827e-08
1.01835e-06
1.67994e-08
1.02047e-06
2.44117e-08
1.02153e-06
2.24172e-08
1.02368e-06
3.07952e-08
1.02411e-06
2.90253e-08
1.02701e-06
3.99348e-08
1.02661e-06
3.65743e-08
1.02994e-06
5.15984e-08
1.03006e-06
4.94343e-08
1.03298e-06
6.46936e-08
1.03396e-06
6.68875e-08
1.03752e-06
8.30338e-08
1.03877e-06
8.62371e-08
1.04437e-06
1.06855e-07
1.04814e-06
1.13515e-07
1.05563e-06
1.35682e-07
1.47569e-07
1.06358e-06
1.00036e-06
3.82982e-10
1.00056e-06
1.62784e-09
1.00173e-06
2.24993e-09
1.00243e-06
3.7415e-09
1.00415e-06
4.00466e-09
1.00528e-06
5.94299e-09
1.00719e-06
6.04472e-09
1.00864e-06
7.91377e-09
1.01057e-06
8.7133e-09
1.01221e-06
9.71418e-09
1.01434e-06
1.25802e-08
1.01581e-06
1.20409e-08
1.01825e-06
1.70348e-08
1.01952e-06
1.55357e-08
1.02213e-06
2.17944e-08
1.02345e-06
2.11052e-08
1.02612e-06
2.81183e-08
1.02728e-06
2.78718e-08
1.03042e-06
3.6787e-08
1.03125e-06
3.57536e-08
1.03497e-06
4.78689e-08
1.03632e-06
4.8084e-08
1.04002e-06
6.09953e-08
1.04254e-06
6.43664e-08
1.04707e-06
7.85042e-08
1.05025e-06
8.30655e-08
1.05694e-06
1.00158e-07
1.06272e-06
1.07743e-07
1.07172e-06
1.26673e-07
1.37623e-07
1.08167e-06
1.00029e-06
9.58926e-11
1.00061e-06
1.30387e-09
1.00163e-06
1.22852e-09
1.00252e-06
2.85794e-09
1.00409e-06
2.4291e-09
1.00543e-06
4.60614e-09
1.0073e-06
4.16861e-09
1.00892e-06
6.29951e-09
1.01101e-06
6.62391e-09
1.01271e-06
8.01387e-09
1.01516e-06
1.0133e-08
1.01674e-06
1.04596e-08
1.01951e-06
1.42576e-08
1.02108e-06
1.39678e-08
1.02406e-06
1.8818e-08
1.02573e-06
1.94332e-08
1.02897e-06
2.48833e-08
1.03059e-06
2.62483e-08
1.03432e-06
3.30558e-08
1.03599e-06
3.40868e-08
1.04025e-06
4.36105e-08
1.04264e-06
4.56887e-08
1.04733e-06
5.63045e-08
1.05077e-06
6.0924e-08
1.05656e-06
7.27198e-08
1.06109e-06
7.85294e-08
1.06882e-06
9.24331e-08
1.07596e-06
1.00602e-07
1.08625e-06
1.1638e-07
1.26916e-07
1.09696e-06
1.00025e-06
-1.5337e-10
1.00067e-06
8.8043e-10
1.00165e-06
2.52788e-10
1.0027e-06
1.81134e-09
1.00421e-06
9.12076e-10
1.00579e-06
3.02791e-09
1.00761e-06
2.34932e-09
1.00953e-06
4.37953e-09
1.01158e-06
4.5745e-09
1.01364e-06
5.95274e-09
1.01611e-06
7.66282e-09
1.01809e-06
8.48261e-09
1.021e-06
1.13447e-08
1.02297e-06
1.19954e-08
1.02619e-06
1.55993e-08
1.02842e-06
1.72016e-08
1.03186e-06
2.14509e-08
1.03434e-06
2.37634e-08
1.0382e-06
2.91947e-08
1.04091e-06
3.13745e-08
1.04551e-06
3.90136e-08
1.04896e-06
4.22414e-08
1.05425e-06
5.10115e-08
1.05886e-06
5.63151e-08
1.06536e-06
6.62153e-08
1.07124e-06
7.26534e-08
1.07957e-06
8.41011e-08
1.088e-06
9.21741e-08
1.09899e-06
1.05394e-07
1.15055e-07
1.11085e-06
1.00022e-06
-3.70227e-10
1.00077e-06
3.27645e-10
1.00174e-06
-7.18058e-10
1.00296e-06
5.89802e-10
1.00451e-06
-6.36989e-10
1.00626e-06
1.28103e-09
1.0082e-06
4.10666e-10
1.01024e-06
2.33794e-09
1.01249e-06
2.3233e-09
1.0147e-06
3.74546e-09
1.01739e-06
4.9689e-09
1.01965e-06
6.22585e-09
1.02273e-06
8.26093e-09
1.02514e-06
9.5857e-09
1.02855e-06
1.21937e-08
1.03128e-06
1.447e-08
1.03502e-06
1.77064e-08
1.03813e-06
2.06578e-08
1.04232e-06
2.50022e-08
1.04584e-06
2.7859e-08
1.05082e-06
3.40279e-08
1.05515e-06
3.79163e-08
1.06108e-06
4.50804e-08
1.06659e-06
5.0808e-08
1.07375e-06
5.9054e-08
1.08066e-06
6.57428e-08
1.08958e-06
7.51824e-08
1.09882e-06
8.29314e-08
1.11036e-06
9.38476e-08
1.02838e-07
1.12258e-06
1.00022e-06
-5.94155e-10
1.00091e-06
-3.55523e-10
1.00197e-06
-1.77674e-09
1.0034e-06
-8.4718e-10
1.00504e-06
-2.27782e-09
1.00703e-06
-7.01648e-10
1.00903e-06
-1.59084e-09
1.0113e-06
6.86667e-11
1.01362e-06
-1.95316e-12
1.0161e-06
1.26282e-09
1.01892e-06
2.15298e-09
1.02152e-06
3.62905e-09
1.02474e-06
5.03926e-09
1.02758e-06
6.74494e-09
1.03111e-06
8.66223e-09
1.0344e-06
1.11798e-08
1.03833e-06
1.37831e-08
1.04211e-06
1.6871e-08
1.04656e-06
2.05502e-08
1.05078e-06
2.36432e-08
1.05613e-06
2.86784e-08
1.06124e-06
3.28033e-08
1.0676e-06
3.87192e-08
1.07398e-06
4.44277e-08
1.08161e-06
5.1426e-08
1.08941e-06
5.79419e-08
1.09871e-06
6.58863e-08
1.10862e-06
7.30184e-08
1.12039e-06
8.20768e-08
9.00278e-08
1.1332e-06
1.00023e-06
-8.22265e-10
1.00107e-06
-1.19278e-09
1.00224e-06
-2.95087e-09
1.00392e-06
-2.52481e-09
1.00569e-06
-4.05077e-09
1.00788e-06
-2.89106e-09
1.01002e-06
-3.73142e-09
1.01248e-06
-2.39213e-09
1.01503e-06
-2.55599e-09
1.01772e-06
-1.42661e-09
1.02072e-06
-8.47321e-10
1.02365e-06
7.01794e-10
1.02703e-06
1.65914e-09
1.03026e-06
3.51401e-09
1.03398e-06
4.94178e-09
1.03771e-06
7.45641e-09
1.04193e-06
9.55865e-09
1.0462e-06
1.26019e-08
1.05099e-06
1.57624e-08
1.05577e-06
1.88622e-08
1.06151e-06
2.29401e-08
1.06726e-06
2.70507e-08
1.07406e-06
3.19219e-08
1.08109e-06
3.73976e-08
1.08913e-06
4.33833e-08
1.09758e-06
4.94914e-08
1.10723e-06
5.62371e-08
1.11756e-06
6.26891e-08
1.12949e-06
7.0145e-08
7.73346e-08
1.14218e-06
1.00035e-06
-1.16743e-09
1.00143e-06
-2.28038e-09
1.0029e-06
-4.42023e-09
1.00486e-06
-4.48127e-09
1.00688e-06
-6.06863e-09
1.00925e-06
-5.26211e-09
1.01158e-06
-6.06429e-09
1.0142e-06
-5.01229e-09
1.01693e-06
-5.28275e-09
1.01985e-06
-4.35069e-09
1.02299e-06
-3.98135e-09
1.02619e-06
-2.5027e-09
1.02972e-06
-1.86742e-09
1.03327e-06
-3.57226e-11
1.03714e-06
1.06797e-09
1.04127e-06
3.32301e-09
1.04574e-06
5.08734e-09
1.05046e-06
7.8915e-09
1.05556e-06
1.06583e-08
1.06083e-06
1.35933e-08
1.06688e-06
1.68853e-08
1.07318e-06
2.07588e-08
1.08027e-06
2.48287e-08
1.08787e-06
2.97925e-08
1.0963e-06
3.49532e-08
1.10532e-06
4.04759e-08
1.11526e-06
4.62951e-08
1.12585e-06
5.20955e-08
1.13772e-06
5.82832e-08
6.43144e-08
1.15074e-06
1.00041e-06
-1.57805e-09
1.00188e-06
-3.74624e-09
1.00374e-06
-6.28493e-09
1.00608e-06
-6.82093e-09
1.00834e-06
-8.32956e-09
1.01093e-06
-7.84629e-09
1.01343e-06
-8.56899e-09
1.01626e-06
-7.84441e-09
1.01921e-06
-8.22895e-09
1.02239e-06
-7.53532e-09
1.02569e-06
-7.28195e-09
1.02916e-06
-5.97164e-09
1.03287e-06
-5.56991e-09
1.03679e-06
-3.95846e-09
1.04091e-06
-3.05104e-09
1.04535e-06
-1.12268e-09
1.0501e-06
3.36252e-10
1.05511e-06
2.8809e-09
1.06053e-06
5.23864e-09
1.06628e-06
7.84876e-09
1.0727e-06
1.04643e-08
1.07943e-06
1.40287e-08
1.08681e-06
1.74523e-08
1.09478e-06
2.18145e-08
1.1035e-06
2.6235e-08
1.11288e-06
3.10976e-08
1.12307e-06
3.61053e-08
1.13389e-06
4.12739e-08
1.1457e-06
4.64757e-08
5.18518e-08
1.15816e-06
1.00084e-06
-2.41968e-09
1.00291e-06
-5.8171e-09
1.00525e-06
-8.62463e-09
1.00791e-06
-9.48292e-09
1.01041e-06
-1.08245e-08
1.01316e-06
-1.05938e-08
1.01589e-06
-1.12984e-08
1.01897e-06
-1.09244e-08
1.02217e-06
-1.14368e-08
1.02558e-06
-1.09402e-08
1.02899e-06
-1.06902e-08
1.03268e-06
-9.66346e-09
1.0366e-06
-9.49173e-09
1.04076e-06
-8.11367e-09
1.04504e-06
-7.33162e-09
1.04968e-06
-5.76306e-09
1.05458e-06
-4.56452e-09
1.05991e-06
-2.45442e-09
1.06563e-06
-4.82094e-10
1.07177e-06
1.70965e-09
1.07838e-06
3.85756e-09
1.08535e-06
7.05768e-09
1.09291e-06
9.89358e-09
1.10126e-06
1.34617e-08
1.1104e-06
1.70942e-08
1.12028e-06
2.12225e-08
1.1308e-06
2.55874e-08
1.1418e-06
3.0271e-08
1.15353e-06
3.47479e-08
3.92553e-08
1.16612e-06
1.00181e-06
-4.23023e-09
1.00528e-06
-9.28568e-09
1.00846e-06
-1.1803e-08
1.01151e-06
-1.2537e-08
1.0142e-06
-1.35095e-08
1.01723e-06
-1.36305e-08
1.0202e-06
-1.42668e-08
1.02351e-06
-1.42299e-08
1.02677e-06
-1.46964e-08
1.03016e-06
-1.4335e-08
1.03337e-06
-1.38959e-08
1.03694e-06
-1.32389e-08
1.04068e-06
-1.32265e-08
1.04472e-06
-1.2158e-08
1.04883e-06
-1.14446e-08
1.05328e-06
-1.0204e-08
1.05789e-06
-9.17877e-09
1.06301e-06
-7.57037e-09
1.06869e-06
-6.16684e-09
1.07487e-06
-4.46908e-09
1.08136e-06
-2.63739e-09
1.08831e-06
1.09826e-10
1.09577e-06
2.43341e-09
1.10405e-06
5.18753e-09
1.11324e-06
7.90472e-09
1.12327e-06
1.11925e-08
1.13409e-06
1.47593e-08
1.14545e-06
1.89157e-08
1.15742e-06
2.27773e-08
2.68926e-08
1.16978e-06
1.00302e-06
-7.25471e-09
1.00686e-06
-1.31242e-08
1.00969e-06
-1.46315e-08
1.01193e-06
-1.4773e-08
1.01366e-06
-1.52443e-08
1.01547e-06
-1.54397e-08
1.01693e-06
-1.57299e-08
1.01842e-06
-1.57172e-08
1.01947e-06
-1.57423e-08
1.02034e-06
-1.52054e-08
1.02107e-06
-1.46234e-08
1.02217e-06
-1.43429e-08
1.02312e-06
-1.41741e-08
1.02416e-06
-1.31979e-08
1.02515e-06
-1.24388e-08
1.02665e-06
-1.17056e-08
1.02857e-06
-1.10949e-08
1.03103e-06
-1.00356e-08
1.03383e-06
-8.96117e-09
1.03695e-06
-7.5932e-09
1.04047e-06
-6.1514e-09
1.04506e-06
-4.48838e-09
1.05085e-06
-3.35076e-09
1.05794e-06
-1.901e-09
1.06607e-06
-2.22905e-10
1.07517e-06
2.09065e-09
1.08523e-06
4.69953e-09
1.09647e-06
7.67417e-09
1.10899e-06
1.02517e-08
1.27659e-08
1.12312e-06
9.92745e-07
9.79621e-07
9.6499e-07
9.50217e-07
9.34972e-07
9.19533e-07
9.03803e-07
8.88085e-07
8.72343e-07
8.57138e-07
8.42514e-07
8.28172e-07
8.13997e-07
8.00799e-07
7.88361e-07
7.76655e-07
7.6556e-07
7.55525e-07
7.46563e-07
7.3897e-07
7.32819e-07
7.28331e-07
7.2498e-07
7.23079e-07
7.22856e-07
7.24947e-07
7.29646e-07
7.3732e-07
7.47572e-07
7.60338e-07
2.87848e-07
-1.03144e-07
3.91572e-07
-1.03724e-07
4.76272e-07
-8.46998e-08
5.3444e-07
-5.81682e-08
5.96413e-07
-6.19731e-08
6.3668e-07
-4.02669e-08
6.8007e-07
-4.33907e-08
7.26775e-07
-4.67043e-08
7.63955e-07
-3.71805e-08
-1.18135e-07
8.8209e-07
7.20222e-07
-1.71519e-07
7.72504e-07
-1.56006e-07
8.08361e-07
-1.20556e-07
8.32118e-07
-8.19253e-08
8.62832e-07
-9.26873e-08
8.9443e-07
-7.18644e-08
9.25256e-07
-7.42171e-08
9.70216e-07
-9.16642e-08
1.01154e-06
-7.85035e-08
-1.38379e-07
1.03178e-06
8.78533e-07
-1.80771e-07
8.89976e-07
-1.67448e-07
8.95361e-07
-1.25941e-07
9.17327e-07
-1.03892e-07
9.27017e-07
-1.02377e-07
9.62842e-07
-1.0769e-07
9.54294e-07
-6.56691e-08
1.00236e-06
-1.39732e-07
1.03781e-06
-1.13949e-07
-1.666e-07
1.06603e-06
9.48599e-07
-1.74151e-07
9.43839e-07
-1.62688e-07
9.5162e-07
-1.33722e-07
9.6517e-07
-1.17442e-07
9.74343e-07
-1.1155e-07
9.88292e-07
-1.21639e-07
9.97212e-07
-7.45898e-08
1.00461e-06
-1.47129e-07
1.04605e-06
-1.55395e-07
-1.82377e-07
1.06183e-06
9.87587e-07
-1.67747e-07
9.86369e-07
-1.61469e-07
9.80767e-07
-1.2812e-07
9.90675e-07
-1.27351e-07
9.90147e-07
-1.11021e-07
1.00204e-06
-1.33536e-07
1.02113e-06
-9.36769e-08
1.03303e-06
-1.59031e-07
1.04436e-06
-1.66724e-07
-1.85245e-07
1.04723e-06
1.01343e-06
-1.59678e-07
1.00656e-06
-1.54597e-07
1.0092e-06
-1.30761e-07
1.01398e-06
-1.32136e-07
1.01811e-06
-1.15152e-07
1.02079e-06
-1.36216e-07
1.03734e-06
-1.10222e-07
1.03525e-06
-1.56944e-07
1.04048e-06
-1.71952e-07
-1.91848e-07
1.04708e-06
1.03646e-06
-1.51969e-07
1.03243e-06
-1.50567e-07
1.02912e-06
-1.27457e-07
1.03015e-06
-1.33165e-07
1.03232e-06
-1.1732e-07
1.03339e-06
-1.37282e-07
1.0442e-06
-1.21037e-07
1.04466e-06
-1.57399e-07
1.04456e-06
-1.71852e-07
-1.94732e-07
1.04744e-06
1.05689e-06
-1.45278e-07
1.04967e-06
-1.43346e-07
1.04776e-06
-1.25544e-07
1.04585e-06
-1.31258e-07
1.04739e-06
-1.18861e-07
1.04505e-06
-1.34937e-07
1.05072e-06
-1.26712e-07
1.04771e-06
-1.54388e-07
1.04394e-06
-1.68079e-07
-1.93264e-07
1.04247e-06
1.07364e-06
-1.37246e-07
1.06673e-06
-1.36441e-07
1.06266e-06
-1.21469e-07
1.05855e-06
-1.27147e-07
1.05723e-06
-1.17548e-07
1.05315e-06
-1.30848e-07
1.05406e-06
-1.27627e-07
1.05066e-06
-1.50989e-07
1.04443e-06
-1.61845e-07
-1.87648e-07
1.03881e-06
1.08882e-06
-1.29102e-07
1.08028e-06
-1.27907e-07
1.07514e-06
-1.16325e-07
1.06902e-06
-1.21025e-07
1.06585e-06
-1.14378e-07
1.06047e-06
-1.25468e-07
1.05732e-06
-1.24481e-07
1.05032e-06
-1.43993e-07
1.04304e-06
-1.54564e-07
-1.79444e-07
1.03484e-06
1.10143e-06
-1.1969e-07
1.09225e-06
-1.18718e-07
1.08549e-06
-1.09564e-07
1.07795e-06
-1.13488e-07
1.0723e-06
-1.08725e-07
1.0649e-06
-1.18075e-07
1.0593e-06
-1.18879e-07
1.05128e-06
-1.3597e-07
1.04148e-06
-1.44763e-07
-1.67238e-07
1.02927e-06
1.11247e-06
-1.09579e-07
1.10218e-06
-1.08433e-07
1.09392e-06
-1.01303e-07
1.08496e-06
-1.0452e-07
1.07763e-06
-1.01394e-07
1.06882e-06
-1.09268e-07
1.06059e-06
-1.10655e-07
1.04999e-06
-1.25369e-07
1.03899e-06
-1.33756e-07
-1.53741e-07
1.02549e-06
1.12192e-06
-9.82915e-08
1.11076e-06
-9.7278e-08
1.10113e-06
-9.16755e-08
1.09086e-06
-9.42448e-08
1.08152e-06
-9.20595e-08
1.07113e-06
-9.88741e-08
1.06132e-06
-1.00848e-07
1.04934e-06
-1.13391e-07
1.03639e-06
-1.20802e-07
-1.38163e-07
1.02081e-06
1.1301e-06
-8.62119e-08
1.11798e-06
-8.51531e-08
1.10702e-06
-8.07156e-08
1.09554e-06
-8.27635e-08
1.08485e-06
-8.13715e-08
1.07307e-06
-8.70964e-08
1.06146e-06
-8.92364e-08
1.04795e-06
-9.9884e-08
1.03384e-06
-1.06683e-07
-1.21484e-07
1.01716e-06
1.13753e-06
-7.30097e-08
1.12441e-06
-7.20285e-08
1.11219e-06
-6.85006e-08
1.09947e-06
-7.00426e-08
1.08727e-06
-6.91705e-08
1.0742e-06
-7.4019e-08
1.06129e-06
-7.63322e-08
1.04662e-06
-8.5216e-08
1.03119e-06
-9.12477e-08
-1.03664e-07
1.01337e-06
1.14424e-06
-5.90917e-08
1.13015e-06
-5.79359e-08
1.1168e-06
-5.51474e-08
1.10295e-06
-5.61906e-08
1.08959e-06
-5.58108e-08
1.07534e-06
-5.97724e-08
1.06115e-06
-6.21438e-08
1.04538e-06
-6.94462e-08
1.02896e-06
-7.48284e-08
-8.4986e-08
1.01028e-06
1.15081e-06
-4.37807e-08
1.13535e-06
-4.24704e-08
1.12059e-06
-4.03938e-08
1.10538e-06
-4.09737e-08
1.09071e-06
-4.11416e-08
1.07525e-06
-4.43159e-08
1.05992e-06
-4.68155e-08
1.04313e-06
-5.2653e-08
1.02575e-06
-5.74448e-08
-6.54313e-08
1.00619e-06
1.15317e-06
-2.71661e-08
1.13628e-06
-2.55843e-08
1.12011e-06
-2.42254e-08
1.10358e-06
-2.44353e-08
1.08761e-06
-2.51758e-08
1.07083e-06
-2.75405e-08
1.05412e-06
-3.0097e-08
1.03587e-06
-3.4411e-08
1.017e-06
-3.85677e-08
-4.42414e-08
9.95807e-07
1.10504e-06
-9.08212e-09
1.08779e-06
-8.33587e-09
1.07146e-06
-7.90077e-09
1.0552e-06
-8.17384e-09
1.0391e-06
-9.07276e-09
1.0221e-06
-1.05389e-08
1.00444e-06
-1.24384e-08
9.84892e-07
-1.48644e-08
9.63898e-07
-1.75733e-08
-2.04729e-08
9.40129e-07
7.51256e-07
7.4292e-07
7.35019e-07
7.26845e-07
7.17772e-07
7.07233e-07
6.94795e-07
6.79931e-07
6.62357e-07
6.41885e-07
7.87365e-08
-7.87365e-08
6.67825e-08
1.1954e-08
2.21055e-08
4.4677e-08
-1.39904e-07
1.62009e-07
-4.25342e-07
2.85438e-07
-6.78068e-07
2.52726e-07
-8.40924e-07
1.62856e-07
-9.30214e-07
8.92895e-08
-9.58107e-07
2.7893e-08
-9.30101e-07
-2.80054e-08
-8.63483e-07
-6.66183e-08
-7.63267e-07
-1.00216e-07
-6.37306e-07
-1.2596e-07
-4.83205e-07
-1.54101e-07
-3.17665e-07
-1.6554e-07
-1.525e-07
-1.65166e-07
-1.42738e-09
-1.51072e-07
1.27603e-07
-1.2903e-07
2.30749e-07
-1.03146e-07
3.10696e-07
-7.99469e-08
3.70872e-07
-6.01764e-08
4.14119e-07
-4.32471e-08
4.4246e-07
-2.83407e-08
4.57557e-07
-1.50971e-08
4.61119e-07
-3.56189e-09
4.55492e-07
5.627e-09
4.43207e-07
1.22851e-08
4.27103e-07
1.6104e-08
4.09632e-07
1.74706e-08
3.92741e-07
1.68911e-08
3.77532e-07
1.52087e-08
3.64648e-07
1.28845e-08
3.54019e-07
1.06293e-08
3.45608e-07
8.41087e-09
3.38889e-07
6.71857e-09
3.33766e-07
5.12359e-09
3.29619e-07
4.14633e-09
3.26549e-07
3.06992e-09
3.2391e-07
2.63971e-09
1.92053e-09
7.56498e-08
-1.54386e-07
7.74255e-08
1.01782e-08
-9.00512e-08
2.12154e-07
-3.70813e-07
4.42771e-07
-6.09039e-07
5.23664e-07
-7.7442e-07
4.18108e-07
-8.75327e-07
2.63763e-07
-9.26886e-07
1.40849e-07
-9.24145e-07
2.51521e-08
-8.79926e-07
-7.22253e-08
-7.96459e-07
-1.50085e-07
-6.86352e-07
-2.10323e-07
-5.56778e-07
-2.55535e-07
-4.03648e-07
-3.07231e-07
-2.36463e-07
-3.32724e-07
-6.5721e-08
-3.35908e-07
9.05711e-08
-3.07364e-07
2.22658e-07
-2.61117e-07
3.3007e-07
-2.10558e-07
4.166e-07
-1.66477e-07
4.86179e-07
-1.29755e-07
5.41808e-07
-9.88759e-08
5.86101e-07
-7.26338e-08
6.20685e-07
-4.96813e-08
6.45993e-07
-2.88696e-08
6.62212e-07
-1.05924e-08
6.70546e-07
3.95092e-09
6.73355e-07
1.32953e-08
6.72835e-07
1.79904e-08
6.70849e-07
1.88772e-08
6.68337e-07
1.77208e-08
6.65964e-07
1.52576e-08
6.63679e-07
1.29142e-08
6.6169e-07
1.03999e-08
6.5967e-07
8.73858e-09
6.57844e-07
6.94933e-09
6.55882e-07
6.10844e-09
6.54127e-07
4.82527e-09
6.5227e-07
4.49683e-09
3.52042e-09
-4.68661e-08
-1.0752e-07
-1.79121e-07
1.42433e-07
-3.08802e-07
3.41835e-07
-4.29972e-07
5.63941e-07
-5.38073e-07
6.31764e-07
-6.23496e-07
5.03531e-07
-6.90361e-07
3.30628e-07
-7.16544e-07
1.67032e-07
-7.02519e-07
1.11268e-08
-6.50655e-07
-1.24089e-07
-5.68581e-07
-2.32159e-07
-4.66549e-07
-3.12355e-07
-3.53815e-07
-3.68269e-07
-2.27882e-07
-4.33165e-07
-8.5359e-08
-4.75247e-07
6.15619e-08
-4.82829e-07
2.00336e-07
-4.46138e-07
3.1579e-07
-3.76571e-07
4.04719e-07
-2.99488e-07
4.74309e-07
-2.36067e-07
5.3101e-07
-1.86456e-07
5.76525e-07
-1.44391e-07
6.1313e-07
-1.09239e-07
6.44651e-07
-8.12024e-08
6.72855e-07
-5.70737e-08
6.96528e-07
-3.42652e-08
7.13777e-07
-1.32984e-08
7.24257e-07
2.8158e-09
7.29553e-07
1.26942e-08
7.32046e-07
1.6384e-08
7.33497e-07
1.62702e-08
7.34999e-07
1.3756e-08
7.36712e-07
1.12002e-08
7.38674e-07
8.43888e-09
7.40508e-07
6.9041e-09
7.42136e-07
5.32131e-09
7.43324e-07
4.92032e-09
7.44078e-07
4.0713e-09
7.44493e-07
4.08151e-09
3.5011e-09
-2.98834e-08
-7.76368e-08
-1.04902e-07
2.17451e-07
-1.84513e-07
4.21446e-07
-2.91778e-07
6.71207e-07
-3.55734e-07
6.9572e-07
-4.08436e-07
5.56232e-07
-4.49113e-07
3.71305e-07
-4.59295e-07
1.77214e-07
-4.35076e-07
-1.30918e-08
-3.72124e-07
-1.87041e-07
-2.8231e-07
-3.21974e-07
-1.84721e-07
-4.09943e-07
-8.65019e-08
-4.66488e-07
1.15166e-08
-5.31183e-07
1.13819e-07
-5.77549e-07
2.1997e-07
-5.88979e-07
3.24189e-07
-5.50357e-07
4.17723e-07
-4.70106e-07
4.87764e-07
-3.69528e-07
5.36279e-07
-2.84583e-07
5.7666e-07
-2.26837e-07
6.12174e-07
-1.79905e-07
6.38569e-07
-1.35634e-07
6.56991e-07
-9.96237e-08
6.7403e-07
-7.41129e-08
6.93639e-07
-5.38748e-08
7.14302e-07
-3.39606e-08
7.32174e-07
-1.50562e-08
7.4467e-07
1.98338e-10
7.51564e-07
9.48942e-09
7.5448e-07
1.33549e-08
7.55424e-07
1.28117e-08
7.55823e-07
1.08009e-08
7.56453e-07
7.80896e-09
7.57448e-07
5.90929e-09
7.58667e-07
4.1019e-09
7.59919e-07
3.66874e-09
7.60966e-07
3.02443e-09
7.61847e-07
3.20051e-09
2.94915e-09
-1.62777e-08
-6.13591e-08
-1.25809e-07
3.26982e-07
-1.2253e-07
4.18168e-07
-1.08704e-07
6.5738e-07
-9.20883e-08
6.79105e-07
-1.06394e-07
5.70538e-07
-1.26278e-07
3.91189e-07
-1.22443e-07
1.73379e-07
-9.17475e-08
-4.37879e-08
-3.31392e-08
-2.45649e-07
4.37692e-08
-3.98882e-07
1.27184e-07
-4.93358e-07
2.10381e-07
-5.49684e-07
2.81085e-07
-6.01888e-07
3.48131e-07
-6.44596e-07
4.11437e-07
-6.52286e-07
4.62412e-07
-6.01331e-07
5.11555e-07
-5.19249e-07
5.58986e-07
-4.16959e-07
5.88526e-07
-3.14123e-07
6.06485e-07
-2.44795e-07
6.28556e-07
-2.01977e-07
6.52611e-07
-1.59689e-07
6.67753e-07
-1.14766e-07
6.73261e-07
-7.96203e-08
6.77624e-07
-5.82378e-08
6.87776e-07
-4.41129e-08
7.03967e-07
-3.12471e-08
7.22153e-07
-1.79875e-08
7.38219e-07
-6.57713e-09
7.49814e-07
1.76012e-09
7.56823e-07
5.8025e-09
7.60377e-07
7.24682e-09
7.62003e-07
6.18339e-09
7.62765e-07
5.14755e-09
7.63347e-07
3.5198e-09
7.63894e-07
3.12162e-09
7.64432e-07
2.48636e-09
7.64938e-07
2.69497e-09
2.56779e-09
-2.48616e-08
-3.64975e-08
-2.16586e-08
3.23779e-07
7.04986e-08
3.26011e-07
1.0409e-07
6.23789e-07
1.53158e-07
6.30037e-07
1.84511e-07
5.39186e-07
2.07847e-07
3.67852e-07
2.32195e-07
1.49032e-07
2.64179e-07
-7.57723e-08
3.03673e-07
-2.85143e-07
3.46023e-07
-4.41233e-07
3.92205e-07
-5.3954e-07
4.43114e-07
-6.00593e-07
4.94454e-07
-6.53228e-07
5.40076e-07
-6.90218e-07
5.77521e-07
-6.8973e-07
5.965e-07
-6.2031e-07
5.96892e-07
-5.19641e-07
6.08718e-07
-4.28785e-07
6.29301e-07
-3.34706e-07
6.37246e-07
-2.5274e-07
6.39516e-07
-2.04247e-07
6.51459e-07
-1.71632e-07
6.68719e-07
-1.32026e-07
6.78149e-07
-8.90498e-08
6.7715e-07
-5.72397e-08
6.73926e-07
-4.08882e-08
6.76822e-07
-3.41432e-08
6.88114e-07
-2.92801e-08
7.0497e-07
-2.34332e-08
7.22936e-07
-1.62053e-08
7.38575e-07
-9.83677e-09
7.50192e-07
-4.37021e-09
7.57755e-07
-1.37929e-09
7.62071e-07
8.31485e-10
7.64263e-07
1.32761e-09
7.65205e-07
2.17962e-09
7.656e-07
2.09135e-09
7.6572e-07
2.57488e-09
2.42684e-09
-2.05722e-07
1.69224e-07
-7.80518e-09
1.25863e-07
1.38879e-07
1.79326e-07
3.26997e-07
4.35672e-07
4.48043e-07
5.08991e-07
5.23589e-07
4.63639e-07
5.66942e-07
3.245e-07
5.92244e-07
1.2373e-07
6.10326e-07
-9.38544e-08
6.13884e-07
-2.88701e-07
6.1117e-07
-4.38519e-07
6.12979e-07
-5.41349e-07
6.23892e-07
-6.11506e-07
6.53799e-07
-6.83136e-07
6.81431e-07
-7.17849e-07
6.86021e-07
-6.94321e-07
6.80291e-07
-6.1458e-07
6.59767e-07
-4.99117e-07
6.35988e-07
-4.05006e-07
6.37197e-07
-3.35915e-07
6.51574e-07
-2.67117e-07
6.56367e-07
-2.09041e-07
6.56149e-07
-1.71413e-07
6.63443e-07
-1.39321e-07
6.76096e-07
-1.01702e-07
6.84115e-07
-6.5259e-08
6.8411e-07
-4.0883e-08
6.80943e-07
-3.09765e-08
6.81145e-07
-2.94824e-08
6.87775e-07
-3.00631e-08
7.00054e-07
-2.84836e-08
7.15295e-07
-2.50786e-08
7.30499e-07
-1.95738e-08
7.4354e-07
-1.44198e-08
7.53228e-07
-8.8565e-09
7.59677e-07
-5.12178e-09
7.63346e-07
-1.48906e-09
7.6522e-07
2.16671e-10
7.65904e-07
1.89118e-09
2.31974e-09
6.5902e-07
3.92294e-07
4.77062e-07
3.07821e-07
3.66259e-07
2.9013e-07
4.43214e-07
3.58716e-07
5.83517e-07
3.68687e-07
7.12724e-07
3.34433e-07
8.03478e-07
2.33745e-07
8.5395e-07
7.32578e-08
8.73041e-07
-1.12945e-07
8.68584e-07
-2.84245e-07
8.52647e-07
-4.22582e-07
8.48011e-07
-5.36712e-07
8.58698e-07
-6.22193e-07
8.64203e-07
-6.88641e-07
8.63234e-07
-7.1688e-07
8.38456e-07
-6.69543e-07
7.9207e-07
-5.68193e-07
7.51295e-07
-4.58341e-07
7.14664e-07
-3.68376e-07
6.89582e-07
-3.10833e-07
6.88411e-07
-2.65945e-07
6.98725e-07
-2.19354e-07
7.04684e-07
-1.77372e-07
7.07692e-07
-1.42329e-07
7.15346e-07
-1.09356e-07
7.27924e-07
-7.78369e-08
7.40094e-07
-5.30529e-08
7.47681e-07
-3.85637e-08
7.50379e-07
-3.21808e-08
7.50671e-07
-3.03544e-08
7.51638e-07
-2.9451e-08
7.55437e-07
-2.88781e-08
7.62496e-07
-2.66328e-08
7.7177e-07
-2.36934e-08
7.81375e-07
-1.84614e-08
7.89795e-07
-1.35419e-08
7.95983e-07
-7.67664e-09
7.99964e-07
-3.76438e-09
8.02199e-07
-3.44051e-10
1.48326e-09
1.02816e-06
3.95914e-07
9.68427e-07
3.67556e-07
8.80159e-07
3.78398e-07
8.46655e-07
3.9222e-07
8.7545e-07
3.39893e-07
9.43381e-07
2.66501e-07
1.00709e-06
1.70036e-07
1.04433e-06
3.60154e-08
1.06391e-06
-1.32518e-07
1.072e-06
-2.92342e-07
1.06881e-06
-4.19393e-07
1.05321e-06
-5.21111e-07
1.0404e-06
-6.09385e-07
1.01001e-06
-6.58249e-07
9.47787e-07
-6.54654e-07
8.82024e-07
-6.0378e-07
8.25551e-07
-5.1172e-07
7.84035e-07
-4.16825e-07
7.6299e-07
-3.47331e-07
7.50657e-07
-2.98499e-07
7.3944e-07
-2.54729e-07
7.32079e-07
-2.11993e-07
7.30668e-07
-1.75961e-07
7.33731e-07
-1.45393e-07
7.39455e-07
-1.1508e-07
7.47135e-07
-8.5517e-08
7.57164e-07
-6.30823e-08
7.69583e-07
-5.09827e-08
7.82471e-07
-4.50683e-08
7.92389e-07
-4.02724e-08
7.96816e-07
-3.38782e-08
7.96084e-07
-2.81458e-08
7.92799e-07
-2.3348e-08
7.90025e-07
-2.09196e-08
7.89372e-07
-1.78085e-08
7.91017e-07
-1.51867e-08
7.93934e-07
-1.05934e-08
7.96984e-07
-6.81468e-09
7.99628e-07
-2.98736e-09
2.33318e-10
1.08171e-06
3.80235e-07
1.09667e-06
3.52591e-07
1.12142e-06
3.53657e-07
1.14525e-06
3.68388e-07
1.17707e-06
3.08069e-07
1.22406e-06
2.19511e-07
1.26445e-06
1.29647e-07
1.28428e-06
1.61881e-08
1.28244e-06
-1.3068e-07
1.27475e-06
-2.84647e-07
1.25955e-06
-4.042e-07
1.21483e-06
-4.7639e-07
1.14234e-06
-5.36896e-07
1.06212e-06
-5.78028e-07
9.67492e-07
-5.60024e-07
8.69534e-07
-5.05822e-07
8.09485e-07
-4.51672e-07
7.86591e-07
-3.9393e-07
7.79765e-07
-3.40506e-07
7.8204e-07
-3.00774e-07
7.87095e-07
-2.59785e-07
7.837e-07
-2.08598e-07
7.72133e-07
-1.64394e-07
7.65239e-07
-1.38499e-07
7.70114e-07
-1.19955e-07
7.8034e-07
-9.5743e-08
7.86204e-07
-6.89455e-08
7.86011e-07
-5.07902e-08
7.85456e-07
-4.45135e-08
7.89673e-07
-4.44893e-08
7.98503e-07
-4.27076e-08
8.07935e-07
-3.75783e-08
8.13878e-07
-2.92904e-08
8.14825e-07
-2.18674e-08
8.11901e-07
-1.48843e-08
8.07436e-07
-1.07212e-08
8.0352e-07
-6.67751e-09
8.00923e-07
-4.21744e-09
7.99802e-07
-1.86683e-09
2.24029e-10
1.08525e-06
3.56815e-07
1.12131e-06
3.16531e-07
1.17422e-06
3.00751e-07
1.23056e-06
3.12044e-07
1.27557e-06
2.6306e-07
1.31357e-06
1.81514e-07
1.34956e-06
9.36551e-08
1.36986e-06
-4.11176e-09
1.35978e-06
-1.20599e-07
1.32865e-06
-2.53522e-07
1.28519e-06
-3.6074e-07
1.22505e-06
-4.16249e-07
1.13621e-06
-4.48053e-07
1.0362e-06
-4.78022e-07
9.60876e-07
-4.84699e-07
9.05044e-07
-4.4999e-07
8.61133e-07
-4.07761e-07
8.40136e-07
-3.72933e-07
8.28508e-07
-3.28878e-07
8.0975e-07
-2.82016e-07
7.94699e-07