/*--------------------------------*- C++ -*----------------------------------*\
| =========                 |                                                 |
| \\      /  F ield         | OpenFOAM: The Open Source CFD Toolbox           |
|  \\    /   O peration     | Version:  2112                                  |
|   \\  /    A nd           | Website:  www.openfoam.com                      |
|    \\/     M anipulation  |                                                 |
\*---------------------------------------------------------------------------*/
FoamFile
{
    version     2.0;
    format      ascii;
    arch        "LSB;label=32;scalar=64";
    class       volVectorField;
    location    "0.34";
    object      U;
}
// * * * * * * * * * * * * * * * * * * * * * * * * * * * * * * * * * * * * * //

dimensions      [0 1 -1 0 0 0 0];

internalField   nonuniform List<vector> 
1880
(
(0.0989358 0.000624991 0)
(0.0984678 0.00113301 0)
(0.0972125 0.00131191 0)
(0.0959641 0.00132994 0)
(0.0940038 0.00135488 0)
(0.0925497 0.00138849 0)
(0.0904215 0.00138751 0)
(0.0890613 0.00146826 0)
(0.0868235 0.00138737 0)
(0.0854264 0.00145755 0)
(0.0831023 0.00131647 0)
(0.0817446 0.00152783 0)
(0.0792178 0.00130365 0)
(0.0778182 0.00154581 0)
(0.075208 0.00116461 0)
(0.0737915 0.00173759 0)
(0.0708679 0.00116778 0)
(0.0694224 0.00192459 0)
(0.0661041 0.00107705 0)
(0.0647518 0.00197897 0)
(0.0607215 0.0013324 0)
(0.0596449 0.00212284 0)
(0.0542072 0.00195292 0)
(0.0536112 0.00215964 0)
(0.0464414 0.00213131 0)
(0.0461778 0.0023819 0)
(0.0379318 0.00201537 0)
(0.0367497 0.00361986 0)
(0.0275394 0.00219718 0)
(0.0241095 0.00569803 0)
(0.0996246 0.000788467 0)
(0.100745 0.00128889 0)
(0.100174 0.00176921 0)
(0.101482 0.00163564 0)
(0.100608 0.00195737 0)
(0.101745 0.00181989 0)
(0.100655 0.0021463 0)
(0.101642 0.00196331 0)
(0.100632 0.00239301 0)
(0.101159 0.00201355 0)
(0.100563 0.00257136 0)
(0.100214 0.00203772 0)
(0.100582 0.00281456 0)
(0.0988111 0.00222413 0)
(0.100271 0.0029738 0)
(0.0973969 0.00242924 0)
(0.0990375 0.00320602 0)
(0.0962807 0.00281035 0)
(0.0971405 0.00341431 0)
(0.0945956 0.00365419 0)
(0.0949347 0.00335609 0)
(0.091747 0.00469358 0)
(0.0922952 0.00393522 0)
(0.0885853 0.00522146 0)
(0.0881681 0.00584473 0)
(0.0840492 0.00564183 0)
(0.0834389 0.00736232 0)
(0.0752707 0.00771599 0)
(0.0782375 0.00958543 0)
(0.0631781 0.00995756 0)
(0.099757 0.000335857 0)
(0.10047 0.00053351 0)
(0.100256 0.00112103 0)
(0.101018 0.000998615 0)
(0.100994 0.00142735 0)
(0.101342 0.00131634 0)
(0.1016 0.00159095 0)
(0.101414 0.00158064 0)
(0.102125 0.00187983 0)
(0.101453 0.00165615 0)
(0.102422 0.00232637 0)
(0.101572 0.00162192 0)
(0.102525 0.00271877 0)
(0.101549 0.00201523 0)
(0.102519 0.00263785 0)
(0.101497 0.0028523 0)
(0.102082 0.00271407 0)
(0.101305 0.00326653 0)
(0.101499 0.00378676 0)
(0.100687 0.00304276 0)
(0.10111 0.00537031 0)
(0.098974 0.00359589 0)
(0.100606 0.00620462 0)
(0.0972018 0.00534792 0)
(0.0984567 0.00759569 0)
(0.0957223 0.0062843 0)
(0.0954515 0.0112017 0)
(0.092055 0.00805557 0)
(0.0924815 0.014153 0)
(0.0869504 0.0150732 0)
(0.0997892 0.00035167 0)
(0.100368 0.000429756 0)
(0.100003 0.00120423 0)
(0.100739 0.000887347 0)
(0.100499 0.0016633 0)
(0.101077 0.00115621 0)
(0.10103 0.00190671 0)
(0.10118 0.00141314 0)
(0.101635 0.0021146 0)
(0.101167 0.00168044 0)
(0.102075 0.00238696 0)
(0.101331 0.00189437 0)
(0.102247 0.00267119 0)
(0.101538 0.00227473 0)
(0.102259 0.00288213 0)
(0.101729 0.0028724 0)
(0.102188 0.00323583 0)
(0.101464 0.00337365 0)
(0.102261 0.0041188 0)
(0.101125 0.0037082 0)
(0.101908 0.00542142 0)
(0.100732 0.00463811 0)
(0.101201 0.00644967 0)
(0.0998892 0.00642804 0)
(0.100621 0.00816569 0)
(0.0985737 0.00812839 0)
(0.0991392 0.0111139 0)
(0.0978629 0.0115646 0)
(0.0965967 0.0141449 0)
(0.095499 0.0165685 0)
(0.0998591 0.0002274 0)
(0.100233 0.000282578 0)
(0.100027 0.000812722 0)
(0.100465 0.000697428 0)
(0.100431 0.00118398 0)
(0.100789 0.00101609 0)
(0.100854 0.0014276 0)
(0.10103 0.00124953 0)
(0.101284 0.00173866 0)
(0.101212 0.00137352 0)
(0.101572 0.00223676 0)
(0.1015 0.00145679 0)
(0.101779 0.0026701 0)
(0.101647 0.00185338 0)
(0.101951 0.0028886 0)
(0.101857 0.00253021 0)
(0.101936 0.00342215 0)
(0.10187 0.00286988 0)
(0.101851 0.00464661 0)
(0.101904 0.00309474 0)
(0.101569 0.00598684 0)
(0.101762 0.00437916 0)
(0.101141 0.0069348 0)
(0.101444 0.00635674 0)
(0.100663 0.00885321 0)
(0.100853 0.00799895 0)
(0.099983 0.0120727 0)
(0.100331 0.0111415 0)
(0.0993752 0.015387 0)
(0.099471 0.0164339 0)
(0.0998667 0.000202201 0)
(0.100215 0.000224299 0)
(0.100005 0.00073422 0)
(0.100371 0.000600232 0)
(0.100358 0.00112279 0)
(0.100616 0.000927302 0)
(0.100781 0.00136995 0)
(0.100805 0.00122587 0)
(0.101255 0.00158818 0)
(0.100982 0.0014981 0)
(0.101515 0.0019542 0)
(0.1014 0.00170436 0)
(0.101609 0.00240898 0)
(0.101733 0.00200943 0)
(0.101723 0.00283807 0)
(0.102011 0.00257593 0)
(0.101911 0.00340936 0)
(0.101947 0.00312235 0)
(0.102039 0.00442036 0)
(0.102145 0.00361131 0)
(0.101793 0.00575985 0)
(0.102259 0.00487429 0)
(0.101635 0.00687311 0)
(0.102052 0.00689998 0)
(0.101674 0.00866921 0)
(0.101781 0.00886856 0)
(0.101403 0.0115664 0)
(0.101948 0.0121026 0)
(0.101421 0.0149332 0)
(0.101817 0.0166549 0)
(0.0998955 0.000131531 0)
(0.100167 0.000219941 0)
(0.100021 0.000523188 0)
(0.100282 0.000549463 0)
(0.100318 0.000832374 0)
(0.100528 0.000843672 0)
(0.100666 0.00109242 0)
(0.100777 0.00107036 0)
(0.101093 0.00139953 0)
(0.101008 0.00123479 0)
(0.101377 0.00185803 0)
(0.101413 0.00140973 0)
(0.101585 0.00232349 0)
(0.101726 0.00177408 0)
(0.101762 0.00273762 0)
(0.102128 0.00236552 0)
(0.101949 0.00338244 0)
(0.102229 0.00290003 0)
(0.102188 0.00442951 0)
(0.102475 0.0035126 0)
(0.102211 0.00565344 0)
(0.102706 0.00485933 0)
(0.10223 0.00689733 0)
(0.102868 0.00672175 0)
(0.102498 0.00882655 0)
(0.102911 0.00868187 0)
(0.102732 0.0115378 0)
(0.103416 0.0117697 0)
(0.103253 0.014727 0)
(0.104076 0.0158392 0)
(0.0999086 9.66441e-05 0)
(0.10014 0.000189664 0)
(0.100037 0.000405423 0)
(0.100223 0.00047448 0)
(0.100333 0.000660783 0)
(0.100434 0.000762787 0)
(0.100687 0.000882389 0)
(0.100678 0.00102577 0)
(0.101118 0.0011352 0)
(0.100959 0.00124838 0)
(0.101374 0.00154376 0)
(0.101463 0.00145012 0)
(0.101579 0.00204884 0)
(0.101828 0.00175099 0)
(0.101857 0.00255828 0)
(0.102217 0.00230983 0)
(0.10222 0.00318573 0)
(0.102371 0.00297223 0)
(0.102548 0.00410948 0)
(0.102803 0.00370087 0)
(0.102691 0.00530297 0)
(0.103183 0.00501003 0)
(0.102992 0.00659792 0)
(0.10352 0.00681086 0)
(0.103519 0.00846381 0)
(0.103925 0.00877413 0)
(0.104065 0.0109465 0)
(0.104749 0.0116526 0)
(0.105088 0.0139574 0)
(0.105812 0.0153019 0)
(0.0999229 5.29777e-05 0)
(0.10012 0.000178011 0)
(0.100047 0.000277941 0)
(0.100203 0.000412696 0)
(0.100323 0.000483369 0)
(0.100426 0.000647721 0)
(0.100655 0.000707742 0)
(0.100698 0.000849577 0)
(0.101091 0.000990536 0)
(0.101004 0.00102825 0)
(0.101389 0.00139163 0)
(0.101521 0.00125923 0)
(0.101669 0.00183875 0)
(0.101916 0.00161506 0)
(0.102004 0.00231479 0)
(0.102399 0.00217177 0)
(0.102435 0.00296795 0)
(0.102643 0.00282285 0)
(0.102908 0.00386691 0)
(0.103154 0.003603 0)
(0.103239 0.00499327 0)
(0.103695 0.00487252 0)
(0.103698 0.00631369 0)
(0.10428 0.00655179 0)
(0.104457 0.00811716 0)
(0.104943 0.00846372 0)
(0.105311 0.0104028 0)
(0.106079 0.0110786 0)
(0.106612 0.0131962 0)
(0.107575 0.0142637 0)
(0.099936 2.30881e-05 0)
(0.1001 0.000148442 0)
(0.100064 0.000171044 0)
(0.100184 0.000333906 0)
(0.100345 0.000314958 0)
(0.100414 0.000536911 0)
(0.100678 0.000498682 0)
(0.100715 0.000727575 0)
(0.101116 0.00075101 0)
(0.101071 0.000906804 0)
(0.101426 0.00112367 0)
(0.101632 0.00113988 0)
(0.101776 0.00156351 0)
(0.102034 0.00148303 0)
(0.102227 0.00203387 0)
(0.102547 0.002044 0)
(0.10275 0.00263949 0)
(0.102913 0.00274095 0)
(0.103285 0.0034746 0)
(0.103577 0.00352837 0)
(0.103765 0.00456784 0)
(0.104221 0.00471959 0)
(0.104443 0.00586727 0)
(0.10499 0.00630063 0)
(0.105386 0.00756569 0)
(0.105914 0.00813391 0)
(0.106483 0.00963801 0)
(0.107272 0.0104854 0)
(0.108054 0.0121815 0)
(0.109034 0.0133107 0)
(0.0999463 -4.15156e-06 0)
(0.100088 0.000111244 0)
(0.100076 7.32636e-05 0)
(0.100188 0.000235653 0)
(0.10036 0.000168074 0)
(0.100444 0.000381139 0)
(0.100697 0.000330433 0)
(0.10078 0.000528116 0)
(0.101154 0.000567275 0)
(0.101167 0.000690891 0)
(0.101503 0.000894818 0)
(0.101757 0.000945361 0)
(0.101919 0.0012792 0)
(0.102193 0.00130146 0)
(0.102442 0.00172086 0)
(0.102775 0.00183007 0)
(0.103043 0.00232476 0)
(0.103231 0.00249665 0)
(0.103681 0.00311898 0)
(0.104009 0.0032762 0)
(0.104292 0.00413371 0)
(0.104784 0.0044015 0)
(0.105129 0.00537599 0)
(0.105719 0.00586546 0)
(0.106256 0.00696468 0)
(0.106843 0.00757439 0)
(0.107544 0.00885526 0)
(0.10841 0.00965996 0)
(0.109295 0.0111264 0)
(0.11038 0.0121127 0)
(0.0999569 -2.71673e-05 0)
(0.100077 6.35975e-05 0)
(0.100093 -2.27746e-05 0)
(0.100197 0.00012798 0)
(0.10039 1.63799e-05 0)
(0.100484 0.0002283 0)
(0.100739 0.000143965 0)
(0.100861 0.00035307 0)
(0.101215 0.000353833 0)
(0.101287 0.000504989 0)
(0.101604 0.000643931 0)
(0.101904 0.000756459 0)
(0.102095 0.000994487 0)
(0.102363 0.00110375 0)
(0.102698 0.00140073 0)
(0.103014 0.00161479 0)
(0.103355 0.00196522 0)
(0.103582 0.00225553 0)
(0.104066 0.00272012 0)
(0.104468 0.00299161 0)
(0.104818 0.00366776 0)
(0.105328 0.00403908 0)
(0.105813 0.0048198 0)
(0.106419 0.0053936 0)
(0.107075 0.00628084 0)
(0.107723 0.00696771 0)
(0.108522 0.00799005 0)
(0.109436 0.00880563 0)
(0.11042 0.00999387 0)
(0.111535 0.0109496 0)
(0.0999653 -4.83035e-05 0)
(0.100073 2.10599e-07 0)
(0.100113 -0.000123756 0)
(0.100224 -1.29342e-05 0)
(0.100431 -0.000147253 0)
(0.100553 2.2579e-05 0)
(0.100808 -6.5107e-05 0)
(0.100975 0.000106409 0)
(0.10131 0.00010272 0)
(0.101431 0.000234934 0)
(0.101741 0.000340417 0)
(0.102077 0.000478392 0)
(0.102292 0.000647086 0)
(0.102575 0.00080223 0)
(0.102958 0.00102625 0)
(0.103296 0.00126644 0)
(0.103675 0.00156209 0)
(0.103949 0.00186338 0)
(0.104469 0.0022651 0)
(0.104934 0.00256563 0)
(0.105333 0.00312289 0)
(0.105884 0.00352896 0)
(0.106458 0.00418375 0)
(0.107101 0.00475799 0)
(0.107844 0.00552293 0)
(0.108553 0.00618821 0)
(0.109415 0.00705694 0)
(0.110382 0.00779867 0)
(0.111422 0.00879882 0)
(0.112576 0.00963973 0)
(0.0999731 -7.00567e-05 0)
(0.10007 -6.93675e-05 0)
(0.100134 -0.000225525 0)
(0.100256 -0.000151194 0)
(0.100482 -0.000298556 0)
(0.100632 -0.000157125 0)
(0.100891 -0.000243887 0)
(0.101102 -9.06676e-05 0)
(0.101426 -0.000102578 0)
(0.101595 2.4867e-05 0)
(0.101909 9.84842e-05 0)
(0.10227 0.000257664 0)
(0.102521 0.000371297 0)
(0.102813 0.000558204 0)
(0.103246 0.000717013 0)
(0.103608 0.000979601 0)
(0.104009 0.00120549 0)
(0.104345 0.00152019 0)
(0.104885 0.00185608 0)
(0.105406 0.00217134 0)
(0.10586 0.00262147 0)
(0.106432 0.00304243 0)
(0.107091 0.00356971 0)
(0.107773 0.00414032 0)
(0.108571 0.00477942 0)
(0.10934 0.0054211 0)
(0.110246 0.00614798 0)
(0.111248 0.00683646 0)
(0.112336 0.00765438 0)
(0.113489 0.00841717 0)
(0.0999799 -0.000100114 0)
(0.100078 -0.000177392 0)
(0.100177 -0.000378065 0)
(0.100325 -0.00036674 0)
(0.100578 -0.000528279 0)
(0.100767 -0.000435537 0)
(0.101033 -0.000519262 0)
(0.101283 -0.000401423 0)
(0.101601 -0.000422982 0)
(0.101805 -0.000320167 0)
(0.102127 -0.000275283 0)
(0.102505 -0.000123663 0)
(0.102784 -4.84639e-05 0)
(0.103095 0.00013224 0)
(0.10356 0.000258073 0)
(0.103947 0.000497498 0)
(0.104363 0.000692246 0)
(0.104754 0.000985583 0)
(0.105323 0.00128054 0)
(0.105888 0.00158475 0)
(0.106386 0.00195193 0)
(0.106983 0.00235492 0)
(0.107701 0.00280341 0)
(0.108419 0.00332981 0)
(0.109264 0.00388881 0)
(0.110085 0.00447112 0)
(0.111036 0.0050959 0)
(0.112063 0.00570356 0)
(0.113183 0.00638086 0)
(0.114334 0.00703333 0)
(0.099985 -0.000124625 0)
(0.100087 -0.000263343 0)
(0.100225 -0.000482675 0)
(0.100412 -0.000505299 0)
(0.100702 -0.000658147 0)
(0.100933 -0.000592639 0)
(0.101214 -0.000668693 0)
(0.101496 -0.000579106 0)
(0.101814 -0.000611129 0)
(0.102052 -0.000530071 0)
(0.102391 -0.000502292 0)
(0.102779 -0.000362403 0)
(0.103094 -0.000312931 0)
(0.103428 -0.000137733 0)
(0.103927 -3.6612e-05 0)
(0.10434 0.000179359 0)
(0.104773 0.000339132 0)
(0.105209 0.000608538 0)
(0.10581 0.000867519 0)
(0.1064 0.00115063 0)
(0.106957 0.0014415 0)
(0.107573 0.0018138 0)
(0.108345 0.00217886 0)
(0.109089 0.00264677 0)
(0.109965 0.00312441 0)
(0.110817 0.0036499 0)
(0.111815 0.00419283 0)
(0.112841 0.00474772 0)
(0.114002 0.00531246 0)
(0.11512 0.00588556 0)
(0.0999894 -0.000212269 0)
(0.100128 -0.000518071 0)
(0.100329 -0.000811571 0)
(0.100573 -0.000894055 0)
(0.100903 -0.00104366 0)
(0.101172 -0.00100969 0)
(0.10146 -0.00107835 0)
(0.101766 -0.0010205 0)
(0.102092 -0.00106513 0)
(0.102357 -0.00100507 0)
(0.10272 -0.000981208 0)
(0.103103 -0.000856321 0)
(0.103464 -0.00082462 0)
(0.103815 -0.000673862 0)
(0.104345 -0.000590565 0)
(0.10475 -0.000413474 0)
(0.10521 -0.0002768 0)
(0.105671 -4.64452e-05 0)
(0.106325 0.000161947 0)
(0.106906 0.000399758 0)
(0.107531 0.000633136 0)
(0.108133 0.000973753 0)
(0.10896 0.00129331 0)
(0.109697 0.0016964 0)
(0.110644 0.00210103 0)
(0.111508 0.00254574 0)
(0.112603 0.0030025 0)
(0.113607 0.00348109 0)
(0.114834 0.00395059 0)
(0.115896 0.00442961 0)
(0.0999868 -0.000235801 0)
(0.100236 -0.000590115 0)
(0.100563 -0.000854039 0)
(0.100935 -0.00095017 0)
(0.101304 -0.00107343 0)
(0.101623 -0.00106718 0)
(0.101898 -0.00114028 0)
(0.102219 -0.00112465 0)
(0.102533 -0.00118279 0)
(0.102815 -0.00114627 0)
(0.103173 -0.00112255 0)
(0.103528 -0.00104494 0)
(0.103892 -0.00104201 0)
(0.104227 -0.000918876 0)
(0.10474 -0.000847396 0)
(0.105103 -0.000714946 0)
(0.105564 -0.000614678 0)
(0.105986 -0.000428158 0)
(0.10665 -0.000251007 0)
(0.107176 -4.50899e-05 0)
(0.107855 0.000154766 0)
(0.108417 0.000455447 0)
(0.109268 0.000703098 0)
(0.109956 0.00101836 0)
(0.110935 0.00134806 0)
(0.111774 0.00173697 0)
(0.112937 0.00215898 0)
(0.113934 0.0026207 0)
(0.115228 0.00305224 0)
(0.116302 0.00348819 0)
(0.0999759 -0.000694036 0)
(0.100352 -0.00135497 0)
(0.100702 -0.00157389 0)
(0.101102 -0.00161406 0)
(0.101323 -0.00168589 0)
(0.101568 -0.00171187 0)
(0.101615 -0.0017617 0)
(0.101833 -0.00176639 0)
(0.101875 -0.00179988 0)
(0.102004 -0.00176207 0)
(0.102035 -0.00169649 0)
(0.102214 -0.00164179 0)
(0.10224 -0.00164447 0)
(0.10239 -0.00155416 0)
(0.102476 -0.00148062 0)
(0.102612 -0.00136115 0)
(0.102707 -0.00125691 0)
(0.102994 -0.00112279 0)
(0.103266 -0.00101722 0)
(0.10358 -0.000876928 0)
(0.103844 -0.0007024 0)
(0.104267 -0.000437487 0)
(0.104774 -0.000232805 0)
(0.105452 -6.56467e-06 0)
(0.10619 0.000196654 0)
(0.107083 0.000453394 0)
(0.108015 0.000735072 0)
(0.109113 0.00109837 0)
(0.11026 0.00143432 0)
(0.11161 0.00181267 0)
(0.0990191 -0.000606063 0)
(0.0984543 -0.00113876 0)
(0.0974327 -0.00127831 0)
(0.0960067 -0.00128664 0)
(0.0943754 -0.00130094 0)
(0.0927737 -0.00131439 0)
(0.0911255 -0.00132939 0)
(0.0896184 -0.00132994 0)
(0.0879964 -0.00130874 0)
(0.086485 -0.00124501 0)
(0.0849624 -0.00119468 0)
(0.0835894 -0.00119153 0)
(0.0820532 -0.00115508 0)
(0.0807611 -0.00105103 0)
(0.0794225 -0.000974804 0)
(0.0782885 -0.000952757 0)
(0.0770382 -0.000935912 0)
(0.0760879 -0.000853404 0)
(0.0750518 -0.000742988 0)
(0.0743128 -0.000615952 0)
(0.0735011 -0.000510141 0)
(0.0730967 -0.000447769 0)
(0.0725813 -0.000427373 0)
(0.0724608 -0.000364466 0)
(0.0721825 -0.000237624 0)
(0.0724398 -2.12341e-05 0)
(0.0725851 0.000227512 0)
(0.0734144 0.000465936 0)
(0.0740921 0.000651776 0)
(0.0755183 0.000786583 0)
(0.0135779 0.00363938 0)
(0.0443141 0.0144966 0)
(0.0378492 0.015362 0)
(0.063887 0.0251554 8.79881e-22)
(0.0530423 0.0227174 6.90472e-22)
(0.0843576 0.0356334 0)
(0.0632396 0.0296056 2.70523e-22)
(0.103357 0.0424664 2.83553e-23)
(0.0764214 0.0369994 6.49476e-22)
(0.123225 0.0462164 0)
(0.0678139 0.0147045 0)
(0.0776946 0.0219792 0)
(0.0827951 0.0240172 0)
(0.0899494 0.0352534 0)
(0.0922989 0.032842 0)
(0.103964 0.0448176 1.8464e-22)
(0.103676 0.0399479 5.07871e-23)
(0.120359 0.0532275 -7.95314e-23)
(0.121339 0.0483839 -4.93507e-22)
(0.137535 0.0517315 -4.83708e-22)
(0.0868047 0.0197112 0)
(0.0907842 0.0215499 0)
(0.0942022 0.0306621 0)
(0.0980009 0.0323677 0)
(0.102979 0.0357449 0)
(0.110042 0.0365158 -1.84638e-22)
(0.113812 0.0423004 -5.07868e-23)
(0.11949 0.0357476 7.95311e-23)
(0.129582 0.0477989 2.58969e-22)
(0.140779 0.0451996 4.83712e-22)
(0.0956967 0.0213528 -3.8736e-22)
(0.0964848 0.023799 0)
(0.1 0.0259231 -3.12348e-22)
(0.103698 0.0314927 -2.58208e-22)
(0.108572 0.0326505 -1.80748e-22)
(0.112717 0.0353595 0)
(0.118045 0.0420887 0)
(0.122769 0.0375766 1.3105e-22)
(0.12917 0.0379211 2.6742e-22)
(0.141096 0.0392464 4.28628e-22)
(0.098713 0.0210553 3.87361e-22)
(0.101634 0.0220107 0)
(0.103688 0.0278303 3.12349e-22)
(0.106975 0.0285186 2.58209e-22)
(0.111006 0.0319557 1.80749e-22)
(0.114622 0.0304288 0)
(0.119716 0.037289 0)
(0.127943 0.0321534 -1.31051e-22)
(0.131874 0.0341089 -2.67423e-22)
(0.138936 0.0349851 -4.28631e-22)
(0.102138 0.0202066 0)
(0.103663 0.0218875 -2.80811e-22)
(0.106388 0.0246378 0)
(0.110055 0.0264633 -1.84667e-22)
(0.113786 0.0292508 0)
(0.117426 0.02874 0)
(0.122039 0.0336219 0)
(0.128498 0.0308331 -1.49918e-22)
(0.131772 0.0300027 0)
(0.137809 0.0302696 0)
(0.104255 0.0195617 2.7624e-22)
(0.106538 0.020032 5.29429e-22)
(0.108956 0.0237325 2.06514e-22)
(0.112119 0.0240613 1.84667e-22)
(0.115435 0.0270881 0)
(0.119358 0.0260002 -2.66576e-23)
(0.123311 0.0293066 0)
(0.129435 0.0269287 1.49918e-22)
(0.133106 0.0271264 0)
(0.13788 0.0266401 0)
(0.106573 0.0180476 -2.76241e-22)
(0.108533 0.0190312 -2.48618e-22)
(0.110924 0.0215496 -2.06515e-22)
(0.114149 0.0220428 0)
(0.117282 0.0242902 0)
(0.120938 0.0236909 2.66576e-23)
(0.124711 0.0261447 0)
(0.12976 0.0247107 0)
(0.133373 0.023953 0)
(0.137378 0.022672 0)
(0.108383 0.0168655 0)
(0.110391 0.017338 -1.96484e-22)
(0.112761 0.0197418 0)
(0.115722 0.0199321 -1.12323e-22)
(0.118656 0.0219652 0)
(0.122076 0.0214008 0)
(0.125618 0.0227671 7.25808e-23)
(0.130124 0.0214028 1.54259e-22)
(0.133702 0.0215458 0)
(0.137159 0.0199864 3.27563e-22)
(0.110073 0.0152803 0)
(0.111969 0.0159193 1.96484e-22)
(0.114239 0.0177707 0)
(0.117045 0.0179724 1.12324e-22)
(0.119837 0.0194257 0)
(0.123031 0.0190565 0)
(0.126461 0.0202217 -7.2581e-23)
(0.130223 0.0190957 -1.54259e-22)
(0.133468 0.0186403 0)
(0.136894 0.0168928 -3.27564e-22)
(0.111506 0.0138315 9.15467e-23)
(0.113323 0.0142795 0)
(0.115528 0.0158235 0)
(0.118149 0.0160005 4.11106e-23)
(0.120815 0.017229 0)
(0.123727 0.0168444 0)
(0.126883 0.0174994 0)
(0.130376 0.0164709 -7.46875e-23)
(0.133477 0.0163705 0)
(0.136377 0.0146833 0)
(0.112757 0.0122747 -7.89677e-24)
(0.114494 0.0127513 0)
(0.116594 0.0139812 5.52378e-23)
(0.119035 0.0141205 -5.5872e-24)
(0.121581 0.0150047 0)
(0.124332 0.0147364 0)
(0.127264 0.0152643 -4.09165e-23)
(0.130311 0.0142924 7.46877e-23)
(0.133142 0.0139554 -1.05716e-22)
(0.135943 0.0124009 -1.40056e-22)
(0.113849 0.0107421 -6.67561e-24)
(0.115507 0.0111237 0)
(0.117514 0.0121149 -5.56215e-24)
(0.119806 0.0122481 -4.51478e-24)
(0.122202 0.0129667 9.99004e-24)
(0.124737 0.0126764 1.39477e-23)
(0.127461 0.0129824 -6.5389e-26)
(0.130287 0.0121473 -7.05071e-23)
(0.132901 0.0118787 4.49569e-24)
(0.135398 0.0104676 6.79142e-24)
(0.114793 0.00928296 -7.69747e-23)
(0.116385 0.0096371 0)
(0.118283 0.0104282 -4.96758e-23)
(0.120423 0.0105293 -3.10088e-23)
(0.122697 0.0110528 -9.99005e-24)
(0.125093 0.0108075 -2.9246e-23)
(0.127601 0.0110039 4.0982e-23)
(0.130149 0.0102376 7.05072e-23)
(0.132586 0.00989492 1.0122e-22)
(0.134934 0.00865903 1.33265e-22)
(0.11566 0.0077364 0)
(0.117181 0.00803171 0)
(0.118971 0.00866611 0)
(0.120964 0.00875549 0)
(0.123094 0.00916301 0)
(0.125317 0.00893199 1.52984e-23)
(0.127653 0.00902185 0)
(0.130011 0.00837018 0)
(0.132275 0.00804706 0)
(0.134438 0.00698146 0)
(0.116449 0.00644681 0)
(0.117888 0.00670317 0)
(0.119593 0.00719662 0)
(0.121434 0.00725776 0)
(0.123453 0.00753135 0)
(0.125519 0.00730625 8.149e-24)
(0.127705 0.00730468 0)
(0.129864 0.0067215 0)
(0.131998 0.00637622 0)
(0.134015 0.00546433 0)
(0.117256 0.00488624 0)
(0.118539 0.00511844 0)
(0.120169 0.00551121 1.8004e-23)
(0.121777 0.00557796 0)
(0.123697 0.00577143 1.68949e-24)
(0.125532 0.00558279 -8.14902e-24)
(0.127623 0.00553064 0)
(0.129561 0.00504885 -3.06187e-23)
(0.131615 0.00472909 0)
(0.133432 0.00398149 0)
(0.117701 0.0038611 0)
(0.11869 0.00405598 0)
(0.120341 0.00431347 -1.80041e-23)
(0.121595 0.0043295 0)
(0.123528 0.00437917 -1.68949e-24)
(0.124981 0.004164 0)
(0.127073 0.00401741 0)
(0.128591 0.00357426 3.06188e-23)
(0.130641 0.00323333 0)
(0.132004 0.00261083 0)
(0.113013 0.00211506 -7.02385e-24)
(0.113601 0.00231726 -5.72079e-24)
(0.115351 0.00250736 -4.2016e-24)
(0.116167 0.00255807 0)
(0.118224 0.00256382 -4.21229e-25)
(0.119134 0.0024234 0)
(0.12131 0.00227202 4.38803e-24)
(0.122095 0.00196534 0)
(0.124154 0.00167722 1.01256e-23)
(0.124534 0.00125678 1.32637e-23)
(0.0766727 0.000832317 7.02305e-24)
(0.07742 0.000808699 5.72008e-24)
(0.0789651 0.000759881 4.20105e-24)
(0.0798623 0.000683108 0)
(0.0815729 0.00058293 4.21168e-25)
(0.0823396 0.000464689 0)
(0.0839616 0.00032365 -4.38732e-24)
(0.0843026 0.000165067 0)
(0.085575 -1.23221e-05 -1.01238e-23)
(0.0851529 -0.000188607 -1.32612e-23)
(0.0081039 0.000134469 0)
(0.0132693 0.00634977 0)
(0.00579687 0.00610806 0)
(0.0008387 0.00649048 0)
(-0.0388009 0.0176824 0)
(-0.0825763 0.0156762 0)
(-0.110932 0.0107803 0)
(-0.125939 0.00577509 0)
(-0.134264 0.00331903 0)
(-0.131906 -0.000467104 0)
(-0.126903 -0.00187528 0)
(-0.112779 -0.00424635 0)
(-0.0996229 -0.00539537 0)
(-0.0772227 -0.0068371 0)
(-0.0565724 -0.00723832 0)
(-0.032445 -0.00700967 0)
(-0.0100571 -0.00636026 0)
(0.00961667 -0.00522674 0)
(0.0256031 -0.00389389 0)
(0.0383463 -0.00270146 0)
(0.0480986 -0.00169584 0)
(0.0553351 -0.000837758 0)
(0.06039 -8.51688e-05 0)
(0.0634692 0.000563128 0)
(0.0647195 0.0010897 0)
(0.0644851 0.00147095 0)
(0.0631133 0.00166231 0)
(0.0610385 0.00166188 0)
(0.0585962 0.00152224 0)
(0.0561562 0.00129965 0)
(0.0538687 0.00104651 0)
(0.0519128 0.000799569 0)
(0.0502525 0.000584186 0)
(0.0489418 0.000407742 0)
(0.0478806 0.000275597 0)
(0.047059 0.000177702 0)
(0.0464322 0.000114997 0)
(0.0458876 6.99767e-05 0)
(0.0455786 4.96736e-05 0)
(0.0451126 3.50026e-05 0)
(0.0066661 -0.0166019 0)
(0.0137684 -0.00426431 0)
(0.00845092 0.00252168 0)
(-0.0324218 0.0269538 0)
(-0.0717166 0.0385539 0)
(-0.101885 0.0332973 0)
(-0.118398 0.0205733 0)
(-0.127648 0.0113146 0)
(-0.131331 0.00190393 0)
(-0.125415 -0.0054452 0)
(-0.119136 -0.0118668 0)
(-0.102032 -0.0162704 0)
(-0.0887795 -0.020225 0)
(-0.0659471 -0.0244512 0)
(-0.0455441 -0.026061 0)
(-0.0204486 -0.0259051 0)
(0.00225024 -0.0236797 0)
(0.0225223 -0.0203354 0)
(0.0390711 -0.0165324 0)
(0.0525726 -0.0131016 0)
(0.0634466 -0.0101781 0)
(0.0722238 -0.00767712 0)
(0.0792307 -0.00547619 0)
(0.0848429 -0.00350884 0)
(0.0890286 -0.00177156 0)
(0.0919384 -0.000311177 0)
(0.0935498 0.000801447 0)
(0.094274 0.00152706 0)
(0.0943276 0.00192278 0)
(0.0941403 0.0020225 0)
(0.0937732 0.00193995 0)
(0.0934479 0.00172801 0)
(0.0931001 0.00150056 0)
(0.0928065 0.00124209 0)
(0.0925305 0.00104429 0)
(0.0922294 0.000830609 0)
(0.0920132 0.00070436 0)
(0.0916607 0.000539149 0)
(0.0915301 0.000478727 0)
(0.0911117 0.00035118 0)
(0.00167532 -0.0135906 0)
(-0.0151635 0.00641761 0)
(-0.0341612 0.038347 0)
(-0.0505343 0.0586907 0)
(-0.0705202 0.0638187 0)
(-0.0830533 0.048873 0)
(-0.0943411 0.0311673 0)
(-0.0992702 0.0161684 0)
(-0.10089 0.00282344 0)
(-0.0941433 -0.00954857 0)
(-0.0860947 -0.0188857 0)
(-0.0716762 -0.0266792 0)
(-0.0579143 -0.0318669 0)
(-0.0405493 -0.0380241 0)
(-0.0220981 -0.0414772 0)
(-0.00139145 -0.04196 0)
(0.018641 -0.0382959 0)
(0.0366685 -0.0322704 0)
(0.0507804 -0.0259237 0)
(0.0616771 -0.0205011 0)
(0.0704868 -0.0160395 0)
(0.0777293 -0.0123333 0)
(0.0834193 -0.00925451 0)
(0.0881938 -0.00658921 0)
(0.0923678 -0.0041126 0)
(0.0961186 -0.0018634 0)
(0.0989805 -4.10231e-05 0)
(0.100934 0.0011398 0)
(0.10192 0.00171588 0)
(0.102427 0.00181187 0)
(0.102613 0.00166986 0)
(0.102838 0.00138718 0)
(0.103029 0.00114039 0)
(0.103316 0.000887539 0)
(0.103568 0.000744593 0)
(0.103823 0.000591338 0)
(0.104019 0.000542329 0)
(0.104143 0.000443957 0)
(0.104232 0.000433834 0)
(0.104242 0.000358402 0)
(0.00372767 -0.00713499 0)
(-0.0122924 0.0235315 0)
(-0.0157104 0.0329462 0)
(-0.0360237 0.0572826 0)
(-0.0474295 0.0616943 0)
(-0.0544888 0.0495995 0)
(-0.061735 0.0330973 0)
(-0.0643568 0.0160269 0)
(-0.0639271 -0.000866589 0)
(-0.0565203 -0.0160789 0)
(-0.0459693 -0.0284621 0)
(-0.0320494 -0.0367567 0)
(-0.0191229 -0.0428205 0)
(-0.0052572 -0.0497995 0)
(0.0087386 -0.0546394 0)
(0.0237021 -0.055596 0)
(0.0378659 -0.0516488 0)
(0.0519954 -0.0435075 0)
(0.0638118 -0.0343269 0)
(0.0717885 -0.0270083 0)
(0.0777208 -0.0214567 0)
(0.0832942 -0.0166567 0)
(0.0878045 -0.0126632 0)
(0.0908716 -0.00971247 0)
(0.0931061 -0.00734813 0)
(0.0956776 -0.0050168 0)
(0.0985821 -0.00263213 0)
(0.101467 -0.000587607 0)
(0.103597 0.000808704 0)
(0.104966 0.00143706 0)
(0.10553 0.00155057 0)
(0.105781 0.00132975 0)
(0.105793 0.0010661 0)
(0.105893 0.000770522 0)
(0.105966 0.000610996 0)
(0.106164 0.000453306 0)
(0.106305 0.000426121 0)
(0.106506 0.000359128 0)
(0.106596 0.000374436 0)
(0.106741 0.000339363 0)
(0.0102823 -0.00934602 0)
(-0.0152646 0.0180673 0)
(-0.0180714 0.0480733 0)
(-0.0171291 0.073484 0)
(-0.0142113 0.0762042 0)
(-0.0127435 0.062978 0)
(-0.0179794 0.0423623 0)
(-0.0179928 0.0198134 0)
(-0.0159677 -0.00181218 0)
(-0.00921439 -0.0220844 0)
(0.000498046 -0.036883 0)
(0.01229 -0.0460044 0)
(0.0233963 -0.0513099 0)
(0.035214 -0.0573345 0)
(0.0446299 -0.062019 0)
(0.0539161 -0.0632222 0)
(0.0611886 -0.0592453 0)
(0.0672488 -0.051113 0)
(0.0747649 -0.0400032 0)
(0.0807152 -0.0302799 0)
(0.0834014 -0.0242657 0)
(0.0859843 -0.0196275 0)
(0.0896963 -0.0146799 0)
(0.0928462 -0.0103567 0)
(0.0940598 -0.00758526 0)
(0.0944456 -0.00585628 0)
(0.0953005 -0.00423693 0)
(0.0973088 -0.00246936 0)
(0.0998434 -0.00077872 0)
(0.102409 0.00043224 0)
(0.104332 0.00110485 0)
(0.105657 0.00124085 0)
(0.106296 0.00111217 0)
(0.106656 0.000811044 0)
(0.106748 0.000588605 0)
(0.106868 0.000380951 0)
(0.106906 0.000319051 0)
(0.107017 0.000254017 0)
(0.107051 0.000270829 0)
(0.10715 0.000250966 0)
(0.00582869 -0.00194293 0)
(-0.0136623 0.0488578 0)
(0.00869054 0.0383628 0)
(0.00986005 0.061024 0)
(0.0182823 0.0610687 0)
(0.0233465 0.0504144 0)
(0.026815 0.0341298 0)
(0.0306762 0.0136087 0)
(0.0347466 -0.0075987 0)
(0.0403217 -0.0281438 0)
(0.0464823 -0.0437253 0)
(0.0516327 -0.0530139 0)
(0.0579532 -0.0583109 0)
(0.0660656 -0.0625331 0)
(0.0737971 -0.066922 0)
(0.078676 -0.0677797 0)
(0.0828213 -0.0617658 0)
(0.0830136 -0.0534678 0)
(0.0829189 -0.0439014 0)
(0.0865389 -0.0328253 0)
(0.089007 -0.0248487 0)
(0.0889743 -0.0209083 0)
(0.0897453 -0.0173973 0)
(0.0924361 -0.0126784 0)
(0.0946802 -0.00833088 0)
(0.0951342 -0.00574018 0)
(0.0944291 -0.0045302 0)
(0.0942708 -0.00373367 0)
(0.0952654 -0.00277755 0)
(0.0974367 -0.00172597 0)
(0.0999781 -0.000740208 0)
(0.102472 -7.85345e-05 0)
(0.104361 0.000324205 0)
(0.105731 0.000408669 0)
(0.106481 0.000424784 0)
(0.106936 0.000311029 0)
(0.107091 0.00029545 0)
(0.107198 0.000236123 0)
(0.107197 0.000264284 0)
(0.107223 0.000262333 0)
(-0.0577008 -0.00596231 0)
(-0.00248711 0.0129349 0)
(0.000996175 0.0253082 0)
(0.0358659 0.0616739 0)
(0.0549989 0.0664468 0)
(0.0682512 0.0588392 0)
(0.0760295 0.0410904 0)
(0.0814184 0.0173203 0)
(0.0849974 -0.00672508 0)
(0.0873912 -0.0275743 0)
(0.0867991 -0.0433691 0)
(0.0859547 -0.0539817 0)
(0.0856552 -0.0610312 0)
(0.0891674 -0.0675032 0)
(0.0954806 -0.0705182 0)
(0.0966339 -0.0697508 0)
(0.09515 -0.0622404 0)
(0.0940217 -0.0508107 0)
(0.0895386 -0.0423654 0)
(0.087675 -0.0345749 0)
(0.0901389 -0.0259954 0)
(0.0918716 -0.0200196 0)
(0.0915463 -0.0169164 0)
(0.0918988 -0.0137351 0)
(0.0936908 -0.0095039 0)
(0.0955048 -0.00573066 0)
(0.0959674 -0.00366966 0)
(0.0955445 -0.00313004 0)
(0.0951217 -0.00312685 0)
(0.0956218 -0.00300142 0)
(0.0969784 -0.00250832 0)
(0.0990605 -0.00187171 0)
(0.101246 -0.00117978 0)
(0.103321 -0.000673043 0)
(0.104896 -0.000249679 0)
(0.106038 -3.68109e-05 0)
(0.106703 0.000148895 0)
(0.107063 0.000188072 0)
(0.107222 0.000251495 0)
(0.107246 0.000221882 0)
(0.105323 0.0397213 0)
(0.0769447 0.0151006 0)
(0.0484479 0.0118969 0)
(0.0478741 0.0269278 0)
(0.0682451 0.0358999 0)
(0.0861368 0.0353664 0)
(0.10142 0.0253169 0)
(0.111144 0.00830954 0)
(0.116618 -0.0113493 0)
(0.117711 -0.0291668 0)
(0.116202 -0.0436688 0)
(0.113083 -0.0545759 0)
(0.113782 -0.0617104 0)
(0.115804 -0.0692442 0)
(0.116309 -0.0729236 0)
(0.115053 -0.0687691 0)
(0.108071 -0.0601385 0)
(0.101932 -0.0483096 0)
(0.097323 -0.0379871 0)
(0.0924867 -0.0322892 0)
(0.0908179 -0.0274927 0)
(0.0923177 -0.0219357 0)
(0.0936631 -0.0173739 0)
(0.0939846 -0.0140581 0)
(0.0945197 -0.0107874 0)
(0.0960792 -0.0073074 0)
(0.0979252 -0.00448893 0)
(0.0993805 -0.00301968 0)
(0.0999858 -0.00271518 0)
(0.100118 -0.00300086 0)
(0.100066 -0.00323897 0)
(0.100385 -0.00323404 0)
(0.101089 -0.00283341 0)
(0.102269 -0.00229685 0)
(0.103563 -0.00158529 0)
(0.104832 -0.00103099 0)
(0.105804 -0.000469725 0)
(0.106481 -0.000156646 0)
(0.106863 0.000121894 0)
(0.107072 0.00024379 0)
(0.139536 0.0411718 0)
(0.13592 0.0423318 0)
(0.125285 0.04323 0)
(0.110987 0.0426199 0)
(0.112156 0.0365163 0)
(0.119419 0.0299362 0)
(0.129429 0.0199654 0)
(0.137446 0.00558962 0)
(0.141708 -0.0119264 0)
(0.143371 -0.0283025 0)
(0.144512 -0.0413925 0)
(0.142536 -0.0529077 0)
(0.139529 -0.0622694 0)
(0.138924 -0.0676249 0)
(0.131966 -0.0694907 0)
(0.121377 -0.0646072 0)
(0.113061 -0.0538408 0)
(0.106016 -0.0437302 0)
(0.102227 -0.0356904 0)
(0.100635 -0.029586 0)
(0.0990098 -0.0252694 0)
(0.0976664 -0.0215725 0)
(0.0971694 -0.0179054 0)
(0.097424 -0.0143257 0)
(0.0980379 -0.0110304 0)
(0.0989697 -0.00823521 0)
(0.100131 -0.00613189 0)