/*--------------------------------*- C++ -*----------------------------------*\
| =========                 |                                                 |
| \\      /  F ield         | OpenFOAM: The Open Source CFD Toolbox           |
|  \\    /   O peration     | Version:  2112                                  |
|   \\  /    A nd           | Website:  www.openfoam.com                      |
|    \\/     M anipulation  |                                                 |
\*---------------------------------------------------------------------------*/
FoamFile
{
    version     2.0;
    format      ascii;
    arch        "LSB;label=32;scalar=64";
    class       volScalarField;
    location    "0.22";
    object      nut;
}
// * * * * * * * * * * * * * * * * * * * * * * * * * * * * * * * * * * * * * //

dimensions      [0 2 -1 0 0 0 0];

internalField   nonuniform List<scalar> 
1880
(
3.54489e-11
4.77333e-12
2.42085e-13
2.03082e-14
8.94849e-14
6.2189e-14
2.35554e-15
5.15597e-14
5.60382e-15
1.43886e-14
7.88655e-14
2.69603e-13
9.02603e-14
3.10531e-13
2.27645e-13
2.78359e-13
2.18836e-13
8.83861e-13
2.53516e-13
8.54771e-13
9.71536e-13
1.12893e-12
1.13113e-11
1.92058e-12
4.91688e-11
1.87353e-12
3.81906e-11
4.86103e-10
1.25888e-11
5.37506e-09
4.89917e-09
5.71503e-09
1.0624e-09
2.94306e-10
6.07702e-11
7.60821e-12
1.60368e-11
1.60715e-11
5.06226e-12
4.98156e-12
6.13279e-11
1.89983e-11
1.0421e-11
1.07918e-11
3.65631e-11
3.86669e-12
7.14004e-13
1.79183e-12
1.47033e-11
1.02086e-11
1.08715e-11
3.02711e-11
7.35856e-11
1.92011e-10
7.80809e-10
3.22191e-09
4.07179e-09
9.1623e-09
2.49797e-08
1.41976e-08
1.51803e-09
2.36767e-09
7.60949e-10
7.56263e-10
5.38945e-10
1.44954e-09
1.95836e-09
3.88032e-09
2.96601e-09
2.44857e-09
1.15911e-09
2.8547e-09
7.19566e-11
6.57002e-10
3.49895e-10
2.50689e-11
9.43303e-10
3.63166e-10
3.78717e-10
8.38031e-10
1.68265e-10
7.78886e-09
2.42692e-09
7.19687e-09
1.80444e-08
7.061e-09
2.46653e-08
3.63961e-08
1.19003e-08
7.2557e-08
2.61731e-12
3.38974e-11
3.54103e-10
1.18219e-09
3.58775e-10
4.13569e-10
2.55935e-09
2.389e-09
1.8124e-10
5.15806e-09
5.52745e-09
2.19125e-08
3.50864e-10
2.11658e-08
1.56385e-09
1.34359e-08
4.87105e-09
8.25426e-09
2.98914e-09
7.35475e-09
5.93409e-09
6.06061e-09
9.41437e-09
1.2913e-08
1.78215e-08
1.92663e-08
2.42679e-08
2.5891e-08
2.8386e-08
3.93566e-08
6.44434e-12
7.09763e-10
3.88651e-10
3.63501e-10
3.39166e-10
5.58955e-10
1.46923e-09
1.78561e-10
2.94847e-09
4.00809e-10
1.73122e-09
1.31431e-08
5.63015e-09
1.39335e-08
3.79577e-09
8.90518e-09
1.11357e-08
8.42383e-09
1.11005e-08
4.88023e-09
9.51956e-09
8.4534e-09
6.69952e-09
1.09091e-08
1.09679e-08
1.37295e-08
1.80617e-08
2.44026e-08
2.06672e-08
3.43373e-08
5.81916e-12
3.39242e-11
2.58198e-11
8.43255e-10
3.16693e-11
5.90801e-11
3.54777e-09
2.45931e-11
1.0376e-09
1.63993e-10
3.62487e-09
7.32391e-09
3.83488e-09
6.68491e-09
8.12995e-10
4.8615e-09
5.48384e-09
4.98221e-09
2.34399e-09
4.24134e-09
4.30054e-09
5.99295e-09
6.33899e-09
1.04575e-08
1.03341e-08
1.45968e-08
1.73137e-08
2.09587e-08
2.39825e-08
2.49393e-08
3.28578e-12
2.03412e-10
1.52033e-10
6.29512e-10
5.84966e-10
1.12444e-09
2.58984e-09
3.9915e-10
3.15102e-09
1.88125e-10
2.38608e-09
2.9928e-11
6.88067e-09
2.89165e-09
3.95737e-09
5.55631e-09
9.83602e-09
4.77632e-09
5.58183e-09
4.69676e-09
3.9205e-09
6.93554e-09
6.11995e-09
8.92752e-09
1.1194e-08
1.15694e-08
1.51566e-08
1.82416e-08
1.95054e-08
2.36656e-08
9.86299e-12
1.61741e-10
1.69726e-10
1.02823e-09
5.51874e-10
9.31457e-10
3.51828e-09
7.31045e-10
2.37949e-09
5.14986e-10
3.37139e-09
5.9126e-10
4.99319e-09
2.91988e-09
2.2022e-09
5.32128e-09
5.53328e-09
3.38512e-09
3.45286e-09
3.99242e-09
4.64905e-09
6.33157e-09
6.57555e-09
9.69018e-09
1.08453e-08
1.26675e-08
1.54449e-08
1.6083e-08
1.93104e-08
2.02456e-08
1.94048e-11
2.4459e-10
3.09809e-10
1.22676e-09
9.27266e-10
1.5211e-09
3.40701e-09
1.15854e-09
3.09152e-09
1.1213e-09
3.29398e-09
1.20956e-09
5.39282e-09
2.97736e-09
2.72098e-09
4.69639e-09
5.33439e-09
3.48315e-09
3.28504e-09
4.89014e-09
4.61555e-09
6.69971e-09
6.87363e-09
8.15345e-09
1.05681e-08
1.1176e-08
1.35962e-08
1.53647e-08
1.67649e-08
1.8828e-08
4.55228e-11
3.98747e-10
4.97558e-10
1.48218e-09
1.19377e-09
1.81798e-09
3.59366e-09
1.50951e-09
3.14892e-09
1.58575e-09
3.69001e-09
1.8044e-09
4.62315e-09
2.91414e-09
2.74595e-09
4.00962e-09
4.44149e-09
3.66251e-09
4.02517e-09
4.92773e-09
5.29113e-09
6.45976e-09
7.26478e-09
8.81812e-09
1.03768e-08
1.07977e-08
1.28957e-08
1.36857e-08
1.59758e-08
1.70783e-08
1.43898e-10
6.47866e-10
6.98603e-10
1.73035e-09
1.35599e-09
1.91348e-09
3.83985e-09
1.79537e-09
3.02873e-09
1.88092e-09
4.10793e-09
2.23239e-09
4.10731e-09
3.06513e-09
3.07428e-09
3.90184e-09
3.7771e-09
4.14277e-09
4.45179e-09
5.42919e-09
5.67128e-09
6.48621e-09
7.3193e-09
8.2604e-09
9.75474e-09
1.03829e-08
1.16625e-08
1.32068e-08
1.45681e-08
1.60195e-08
3.16493e-10
9.04909e-10
8.68646e-10
1.79293e-09
1.58419e-09
2.22362e-09
3.6471e-09
2.0287e-09
3.50529e-09
2.24635e-09
4.01608e-09
2.63088e-09
4.37005e-09
3.09377e-09
3.43097e-09
3.77845e-09
4.03575e-09
4.4591e-09
4.82134e-09
5.51883e-09
5.94887e-09
6.51922e-09
7.44429e-09
8.25509e-09
9.29525e-09
9.86742e-09
1.12191e-08
1.23184e-08
1.38818e-08
1.49235e-08
1.77907e-10
7.29817e-10
8.55282e-10
1.95429e-09
1.45036e-09
1.94554e-09
3.95064e-09
2.16796e-09
3.11379e-09
2.28795e-09
4.49585e-09
2.82392e-09
3.74633e-09
3.32224e-09
3.93637e-09
3.97836e-09
3.74507e-09
4.66249e-09
5.25985e-09
5.67691e-09
6.18121e-09
6.58559e-09
7.31434e-09
8.12868e-09
8.79108e-09
9.67409e-09
1.05844e-08
1.18454e-08
1.3044e-08
1.41311e-08
3.31442e-11
7.5171e-10
9.38702e-10
1.68158e-09
1.71985e-09
2.27182e-09
3.51845e-09
2.27499e-09
3.6152e-09
2.52617e-09
4.2989e-09
3.11492e-09
4.22049e-09
3.51596e-09
4.08186e-09
4.07067e-09
4.17306e-09
5.05106e-09
5.34145e-09
5.86261e-09
6.2809e-09
6.63463e-09
7.25244e-09
7.87409e-09
8.49049e-09
9.28648e-09
1.02109e-08
1.12006e-08
1.24345e-08
1.33881e-08
1.89452e-11
1.76637e-10
5.19251e-10
2.0109e-09
9.90736e-10
1.36501e-09
4.09545e-09
2.17739e-09
2.61728e-09
2.30053e-09
4.71106e-09
3.01755e-09
3.71444e-09
3.55764e-09
4.4932e-09
4.12114e-09
3.90469e-09
4.81302e-09
5.54088e-09
5.79969e-09
6.28617e-09
6.57221e-09
6.98928e-09
7.71155e-09
8.11562e-09
8.9862e-09
9.77414e-09
1.07136e-08
1.18115e-08
1.27853e-08
2.39304e-11
1.12627e-09
1.19972e-09
1.53045e-09
1.54719e-09
1.91028e-09
2.91095e-09
2.187e-09
3.85216e-09
2.52002e-09
3.97142e-09
3.18494e-09
4.20213e-09
3.71493e-09
4.47195e-09
4.28802e-09
4.33867e-09
5.25027e-09
5.5294e-09
5.88577e-09
6.16437e-09
6.39807e-09
6.69318e-09
7.23611e-09
7.70752e-09
8.51463e-09
9.32142e-09
1.01955e-08
1.12714e-08
1.22321e-08
4.8953e-12
6.02906e-13
1.54256e-10
1.79166e-09
4.97998e-10
7.03304e-10
2.86608e-09
1.23859e-09
1.38912e-09
2.02563e-09
4.4675e-09
2.57937e-09
3.08675e-09
3.57777e-09
4.93991e-09
4.37447e-09
4.29628e-09
4.94911e-09
5.45718e-09
5.50492e-09
5.61471e-09
5.70446e-09
5.97068e-09
6.55713e-09
7.11257e-09
7.93444e-09
8.85161e-09
9.71641e-09
1.07767e-08
1.1755e-08
1.78752e-09
2.82719e-09
1.55686e-09
1.98516e-09
1.67414e-09
2.68887e-09
2.95555e-09
3.58147e-09
4.82357e-09
2.9828e-09
2.38592e-09
9.65623e-10
6.10076e-10
3.79195e-10
3.65876e-10
2.39565e-10
3.19986e-11
4.05279e-10
2.11787e-09
2.98019e-09
3.41987e-09
8.39656e-10
1.71901e-10
3.43762e-12
1.466e-10
9.90098e-10
2.03866e-09
3.81761e-09
5.15783e-09
7.34706e-09
4.98102e-09
5.4837e-09
8.52935e-10
2.81791e-10
2.75719e-11
3.89642e-13
2.97847e-12
2.23687e-13
3.5394e-13
2.18653e-12
1.08573e-11
3.76131e-12
4.35572e-12
7.85691e-13
2.30171e-12
4.46062e-13
1.30662e-11
6.5781e-11
1.04347e-10
1.01967e-10
7.86781e-11
3.95261e-11
1.95341e-11
7.9825e-12
2.70046e-12
1.22295e-12
4.72632e-13
1.26978e-13
4.73779e-14
7.83408e-15
3.47451e-11
4.65079e-12
2.11944e-13
1.08376e-14
9.39366e-14
3.06959e-14
7.53427e-17
7.50737e-15
3.61725e-15
7.51429e-15
1.96643e-14
1.33136e-14
2.60812e-15
1.05453e-15
9.04129e-16
2.82027e-14
3.18547e-13
7.61969e-13
7.45209e-13
4.89727e-13
2.15919e-13
7.47934e-14
2.4176e-14
6.47516e-15
2.33717e-15
1.99903e-15
5.2379e-16
7.31297e-16
9.65335e-17
1.3272e-16
2.87893e-08
1.02063e-11
6.1654e-10
7.89333e-10
1.41097e-09
2.07547e-11
9.75126e-10
5.45213e-11
7.50367e-10
1.16983e-09
1.44755e-08
9.7427e-08
1.06371e-08
3.33736e-08
9.12227e-09
6.06025e-08
1.92914e-08
8.76855e-07
4.09757e-07
1.11429e-07
4.86585e-08
1.2837e-10
6.25404e-08
3.90865e-08
1.0637e-07
7.02271e-08
6.27673e-08
8.0182e-08
6.40413e-07
9.57004e-09
6.74746e-08
3.59466e-08
3.13239e-08
3.82356e-08
4.13223e-08
2.03612e-08
4.59732e-08
6.93791e-08
5.29029e-08
1.93421e-08
4.2178e-08
3.21362e-08
3.38963e-08
4.21516e-08
3.72182e-08
2.81391e-08
4.79334e-08
5.48182e-08
4.03512e-08
2.42394e-08
4.38152e-08
3.00479e-08
3.01115e-08
3.43628e-08
3.93299e-08
4.36755e-08
3.51222e-08
4.80487e-08
4.58706e-08
3.08402e-08
3.27017e-08
2.61466e-08
2.91627e-08
3.0177e-08
3.134e-08
3.48777e-08
3.55173e-08
3.84192e-08
3.3921e-08
3.05171e-08
3.20401e-08
2.45963e-08
2.66101e-08
2.92955e-08
3.03274e-08
3.27474e-08
3.07399e-08
3.52695e-08
3.20702e-08
2.6726e-08
2.61325e-08
2.22029e-08
2.47735e-08
2.55792e-08
2.66488e-08
2.97164e-08
2.90684e-08
2.81589e-08
2.87633e-08
2.64531e-08
2.4217e-08
2.05081e-08
2.28563e-08
2.46443e-08
2.44632e-08
2.58084e-08
2.67875e-08
2.75449e-08
2.46853e-08
2.2232e-08
2.06543e-08
1.90284e-08
2.1036e-08
2.2068e-08
2.25922e-08
2.42717e-08
2.39398e-08
2.31435e-08
2.30466e-08
2.12789e-08
1.88881e-08
1.75821e-08
1.95709e-08
2.0819e-08
2.09152e-08
2.16757e-08
2.19606e-08
2.17e-08
2.01265e-08
1.8526e-08
1.67202e-08
1.65163e-08
1.81255e-08
1.91495e-08
1.95908e-08
2.01488e-08
1.97915e-08
1.92479e-08
1.85833e-08
1.71254e-08
1.5417e-08
1.54443e-08
1.69687e-08
1.79223e-08
1.82835e-08
1.85065e-08
1.82054e-08
1.77037e-08
1.67523e-08
1.53573e-08
1.41864e-08
1.46263e-08
1.58803e-08
1.67216e-08
1.71316e-08
1.72574e-08
1.67841e-08
1.61753e-08
1.54214e-08
1.40967e-08
1.34009e-08
1.38796e-08
1.50163e-08
1.57025e-08
1.60637e-08
1.61371e-08
1.56749e-08
1.50483e-08
1.42373e-08
1.29727e-08
1.27023e-08
1.32133e-08
1.42273e-08
1.47654e-08
1.51484e-08
1.51744e-08
1.47832e-08
1.40405e-08
1.33649e-08
1.19631e-08
8.47754e-09
7.66348e-09
9.12997e-09
8.246e-09
9.2219e-09
7.82066e-09
7.9297e-09
5.83417e-09
5.45764e-09
3.40559e-09
7.2538e-14
5.27664e-13
1.41205e-12
5.44776e-12
1.02222e-11
1.97869e-11
2.45937e-11
3.08094e-11
3.04918e-11
2.67992e-11
2.91001e-15
3.13604e-15
6.48915e-15
1.05395e-14
1.74954e-14
3.51998e-14
4.1089e-14
6.82067e-14
5.8459e-14
4.36523e-14
2.42194e-09
4.22349e-08
1.18006e-08
1.79066e-08
1.18933e-08
3.9702e-09
1.05113e-09
4.51734e-10
6.18282e-10
1.42262e-09
4.30217e-09
1.70311e-08
7.97011e-08
1.36713e-07
3.59014e-08
4.48996e-09
6.34884e-10
1.0604e-10
1.86442e-11
2.7893e-12
2.42621e-13
3.23266e-15
2.42629e-15
2.26955e-14
3.79916e-14
3.69845e-14
2.66473e-14
1.55448e-14
7.8418e-15
3.6979e-15
1.6811e-15
7.89721e-16
3.75487e-16
1.95665e-16
1.04361e-16
5.89303e-17
3.66205e-17
1.76122e-17
1.64998e-17
9.63842e-18
1.46184e-07
1.90201e-09
5.71635e-08
1.83823e-07
1.68977e-07
3.42424e-08
1.17254e-06
1.25889e-07
1.77107e-10
3.54861e-08
1.05003e-07
1.17804e-07
1.28703e-07
1.16367e-07
9.77262e-08
7.74426e-08
5.71625e-08
3.82705e-08
2.17492e-08
9.61963e-09
3.21213e-09
8.44193e-10
1.82258e-10
3.03932e-11
3.32525e-12
1.34301e-13
2.04857e-15
4.20843e-14
9.38842e-14
9.71978e-14
7.85146e-14
5.02626e-14
3.39344e-14
1.87073e-14
1.2859e-14
6.81478e-15
5.21895e-15
2.60165e-15
2.10176e-15
8.52186e-16
1.99587e-08
9.70466e-08
1.30992e-07
5.77342e-08
5.64532e-08
2.12536e-06
1.98157e-06
5.60836e-07
6.63801e-08
8.58373e-12
3.25594e-08
8.98016e-08
1.18289e-07
1.17907e-07
1.01724e-07
8.12617e-08
5.96463e-08
4.28928e-08
3.27529e-08
2.69016e-08
2.27849e-08
1.87844e-08
1.43796e-08
9.45719e-09
4.92915e-09
1.8554e-09
5.02064e-10
9.66181e-11
1.35981e-11
1.20233e-12
4.01723e-14
1.04429e-14
3.53297e-14
5.66722e-14
7.37808e-14
6.0245e-14
6.62166e-14
4.24173e-14
4.74638e-14
2.13197e-14
9.72177e-07
1.08358e-07
8.72519e-08
4.14338e-08
4.57758e-07
2.70213e-06
2.37278e-06
8.85309e-07
3.94828e-07
8.1709e-08
8.52876e-11
3.613e-08
9.83432e-08
1.23999e-07
1.16876e-07
9.82652e-08
7.64839e-08
5.36388e-08
2.99447e-08
1.69087e-08
1.31479e-08
1.33397e-08
1.36748e-08
1.25804e-08
1.06751e-08
8.57691e-09
6.64045e-09
4.87969e-09
3.3612e-09
2.01885e-09
1.01811e-09
3.88071e-10
1.11661e-10
2.28788e-11
2.94922e-12
1.92584e-13
2.31626e-15
3.56035e-14
3.66277e-13
2.40355e-13
1.37802e-07
6.39705e-08
1.53486e-07
7.81107e-09
1.63723e-06
3.03229e-06
2.4879e-06
9.75885e-07
5.83588e-07
4.02705e-07
2.32198e-08
1.32692e-09
3.48847e-08
8.4071e-08
9.47018e-08
7.77761e-08
2.30744e-08
3.66271e-09
5.20707e-09
1.92601e-08
1.12313e-08
6.11225e-09
6.89392e-09
8.78565e-09
9.06943e-09
7.89678e-09
6.35891e-09
4.91693e-09
3.78792e-09
2.8835e-09
2.24559e-09
1.73261e-09
1.37483e-09
1.07106e-09
8.51249e-10
6.60109e-10
5.0861e-10
3.94299e-10
2.98328e-10
2.57205e-10
1.87191e-08
8.56827e-08
9.65205e-08
1.54768e-09
1.56567e-06
2.90599e-06
2.14256e-06
6.9848e-07
4.94743e-07
6.94552e-07
1.19087e-07
3.41473e-10
3.01904e-08
7.97351e-08
8.87248e-08
6.86829e-08
4.62957e-08
2.30384e-08
2.72543e-08
7.9586e-09
8.91384e-10
1.56095e-09
6.32883e-09
5.22304e-09
6.36022e-09
6.77593e-09
6.03306e-09
4.82793e-09
3.73743e-09
2.83274e-09
2.19194e-09
1.68139e-09
1.34146e-09
1.05741e-09
8.83299e-10
7.21433e-10
6.34427e-10
5.46184e-10
5.10013e-10
4.81165e-10
6.70921e-08
2.89832e-07
1.68241e-07
1.18056e-07
4.91359e-08
2.32025e-06
2.35855e-06
1.26808e-06
9.94678e-07
1.53413e-06
6.50543e-07
4.02498e-09
6.43208e-08
8.57813e-08
6.08511e-08
6.62431e-08
6.02756e-08
3.81395e-08
1.49332e-08
2.32508e-09
3.80196e-11
2.11422e-11
2.84823e-10
2.28051e-09
5.7252e-09
5.3067e-09
4.90325e-09
4.26191e-09
3.47167e-09
2.67997e-09
2.08931e-09
1.59763e-09
1.28331e-09
9.96946e-10
8.38412e-10
6.71017e-10
5.96116e-10
5.04927e-10
4.79183e-10
4.48849e-10
1.8449e-08
4.01171e-08
8.59272e-09
1.33127e-08
9.75419e-09
1.14704e-06
1.72572e-06
6.82939e-07
5.70788e-07
1.32934e-06
1.82647e-07
3.26321e-08
8.27031e-08
7.04009e-08
2.35431e-08
3.4477e-09
2.27544e-08
3.01182e-08
6.45657e-09
1.45357e-08
2.62717e-08
9.96276e-09
3.44285e-09
1.33553e-09
6.64268e-10
9.92386e-10
3.02849e-09
3.69652e-09
3.25761e-09
2.62431e-09
2.08113e-09
1.62003e-09
1.28205e-09
1.00051e-09
8.18647e-10
6.5542e-10
5.70836e-10
4.81504e-10
4.53602e-10
4.25252e-10
2.56809e-08
6.51996e-09
3.28944e-08
1.35246e-07
8.0142e-07
2.13405e-06
2.15462e-06
9.41103e-07
4.11536e-07
8.78063e-07
2.54797e-10
8.43833e-08
1.06929e-07
7.33833e-08
6.61931e-08
3.50984e-08
1.91274e-08
3.58699e-08
3.62091e-09
3.53458e-10
1.64701e-09
8.54296e-09
2.22942e-08
2.27345e-08
1.04649e-08
3.02059e-09
6.05519e-10
1.99225e-10
7.69514e-10
1.67627e-09
1.87463e-09
1.60193e-09
1.33784e-09
1.03341e-09
8.41589e-10
6.35298e-10
5.39758e-10
4.27528e-10
3.98267e-10
3.66823e-10
3.80872e-08
1.82981e-07
8.68736e-09
3.25936e-07
1.00571e-06
1.35466e-06
1.30011e-06
1.52038e-09
7.36303e-09
4.02263e-08
9.59046e-08
1.0018e-07
9.3965e-08
7.67506e-08
6.39943e-08
5.76523e-08
3.74061e-08
2.69057e-08
3.45478e-08
3.11386e-08
1.58212e-08
5.55879e-09
4.34466e-09
6.96285e-09
1.23997e-08
1.53859e-08
1.16144e-08
5.72876e-09
2.43092e-09
1.2322e-09
1.05224e-09
1.01215e-09
1.02011e-09
8.32681e-10
6.83873e-10
5.23355e-10
4.4061e-10
3.51884e-10
3.24256e-10
3.02389e-10
1.60491e-08
3.42487e-08
4.27645e-08
2.39952e-08
2.24165e-09
4.35959e-09
8.21192e-08
8.21061e-08
6.17958e-08
8.70405e-08
9.84257e-08
7.0631e-08
5.08604e-08
6.05047e-08
5.18778e-08
4.37622e-08
3.40062e-08
5.78049e-09
9.31088e-09
2.16486e-07
2.13176e-07
1.42541e-07
1.8185e-07
5.47491e-08
1.20615e-08
8.39457e-09
6.7354e-09
5.89021e-09
5.19351e-09
4.29832e-09
3.33331e-09
2.49444e-09
1.85157e-09
1.32824e-09
9.74858e-10
6.64627e-10
4.95871e-10
3.32964e-10
2.77203e-10
2.34588e-10
2.98035e-08
6.54073e-08
7.05048e-08
7.33105e-08
6.37982e-08
8.29082e-08
8.02211e-08
6.13115e-08
5.82402e-08
4.76318e-08
5.481e-08
4.10846e-08
5.95704e-08
4.3692e-08
5.01048e-08
3.78961e-08
2.83963e-09
3.70672e-08
4.04592e-08
4.08874e-08
3.2161e-08
2.14511e-07
7.99234e-08
3.74307e-08
4.2949e-08
6.23811e-08
6.18966e-08
2.02862e-08
4.20651e-10
3.574e-10
1.00036e-09
1.30109e-09
1.35109e-09
1.05789e-09
7.69149e-10
5.17465e-10
3.68323e-10
2.30934e-10
1.70051e-10
1.33936e-10
1.81947e-08
4.45699e-08
5.88575e-08
6.56623e-08
6.1596e-08
6.66225e-08
5.43794e-08
5.74185e-08
6.47829e-08
5.35731e-08
2.37497e-08
4.99979e-08
6.70911e-08
3.40319e-08
2.71409e-08
2.56287e-08
3.83434e-08
2.69296e-08
9.4523e-10
1.07397e-08
8.84314e-10
8.05113e-10
5.08286e-10
4.75148e-09
1.57562e-08
1.8959e-08
1.20787e-08
6.49973e-09
4.33206e-09
3.44006e-09
2.9415e-09
2.36225e-09
1.86456e-09
1.36078e-09
9.83921e-10
6.46717e-10
4.37904e-10
2.3955e-10
1.04482e-10
1.53794e-11
3.16204e-08
4.41763e-08
4.74164e-08
5.25691e-08
5.56148e-08
5.66419e-08
4.41165e-08
2.34037e-08
4.55323e-08
3.29039e-08
4.86016e-08
1.36231e-08
3.62815e-08
1.68777e-08
2.18659e-08
4.26144e-09
3.75601e-08
1.46526e-08
1.59863e-09
2.56599e-08
1.62569e-08
5.24276e-09
1.28756e-09
2.00537e-08
2.38304e-08
2.00376e-08
1.42283e-08
9.29802e-09
6.09818e-09
4.23991e-09
3.20549e-09
2.45772e-09
1.90094e-09
1.37959e-09
9.80811e-10
6.33353e-10
4.13846e-10
1.9078e-10
9.77184e-12
3.46536e-15
2.59001e-08
3.20635e-08
3.88154e-08
4.38313e-08
4.28609e-08
4.13675e-08
4.03385e-08
4.03338e-08
2.06606e-08
3.72463e-08
4.6603e-08
3.6395e-08
1.10995e-08
3.48323e-08
4.6554e-08
2.91112e-08
4.05455e-09
1.80565e-08
1.18495e-08
2.39721e-08
3.1405e-08
2.81975e-09
3.02486e-07
2.67464e-07
1.34828e-07
2.44676e-08
1.7241e-09
2.42197e-09
3.99041e-09
3.99711e-09
3.3807e-09
2.65093e-09
1.98877e-09
1.42727e-09
9.70059e-10
6.24295e-10
3.92871e-10
1.77445e-10
1.14937e-11
5.07605e-13
2.73665e-08
3.0941e-08
3.24357e-08
3.43133e-08
3.62531e-08
3.51826e-08
2.86388e-08
2.7435e-08
3.33256e-08
2.08521e-08
2.26198e-08
2.77625e-08
3.65795e-08
9.95934e-09
2.20071e-08
1.09593e-08
1.33858e-08
5.72292e-09
3.24657e-08
1.19676e-08
1.95107e-09
2.17069e-10
9.45946e-10
4.79327e-09
1.10993e-08
1.398e-08
1.26747e-08
9.87869e-09
7.30476e-09
5.3408e-09
3.96614e-09
2.92141e-09
2.16307e-09
1.52414e-09
1.07399e-09
6.90345e-10
4.67937e-10
2.60522e-10
1.60847e-10
6.6834e-11
2.31277e-08
2.47435e-08
2.67493e-08
2.96136e-08
2.79417e-08
2.97511e-08
2.95275e-08
2.34252e-08
2.76623e-08
2.7447e-08
2.61097e-08
1.4871e-08
3.00266e-08
2.16054e-08
2.18789e-08
7.59739e-09
2.16882e-08
2.06712e-08
6.74188e-09
7.92547e-09
6.48296e-08
4.17814e-08
1.85839e-09
5.90844e-09
9.85132e-09
1.0019e-08
8.60938e-09
7.13186e-09
5.82667e-09
4.65336e-09
3.56119e-09
2.67965e-09
1.90231e-09
1.33023e-09
8.84122e-10
5.90704e-10
4.11939e-10
2.80092e-10
2.23208e-10
1.94974e-10
2.20976e-08
2.26076e-08
2.27276e-08
2.35168e-08
2.52585e-08
2.33011e-08
2.22885e-08
2.46764e-08
2.21956e-08
2.12766e-08
2.68368e-08
2.3643e-08
1.69417e-08
2.10185e-08
2.75928e-08
2.10267e-08
1.11031e-08
1.32539e-08
1.87523e-08
1.98205e-08
1.71517e-08
1.31437e-08
1.08492e-08
1.10399e-08
1.10535e-08
1.02906e-08
9.03144e-09
7.53524e-09
6.08508e-09
4.75118e-09
3.66498e-09
2.73122e-09
2.02964e-09
1.42773e-09
1.0298e-09
6.91735e-10
5.20238e-10
3.60563e-10
3.10362e-10
2.72416e-10
1.87446e-08
1.90781e-08
1.90874e-08
1.99726e-08
1.95675e-08
2.03378e-08
2.02764e-08
1.83882e-08
2.0593e-08
2.13625e-08
1.8236e-08
2.05887e-08
2.34644e-08
1.97099e-08
1.66884e-08
1.96079e-08
2.11658e-08
1.89077e-08
1.42404e-08
8.95408e-09
8.50749e-09
1.24264e-08
1.45348e-08
1.4169e-08
1.24111e-08
1.0175e-08
8.07111e-09
6.30748e-09
4.91546e-09
3.81426e-09
2.90598e-09
2.1859e-09
1.59219e-09
1.15617e-09
8.49416e-10
6.34579e-10
5.15462e-10
4.10904e-10
3.72971e-10
3.4196e-10
1.71968e-08
1.70018e-08
1.64383e-08
1.6607e-08
1.68458e-08
1.62412e-08
1.62257e-08
1.68323e-08
1.61654e-08
1.6682e-08
1.85471e-08
1.75821e-08
1.60715e-08
1.77759e-08
1.9186e-08
1.75899e-08
1.39141e-08
1.33113e-08
1.54139e-08
1.54853e-08
1.38398e-08
1.19897e-08
1.03118e-08
9.00593e-09
8.14501e-09
7.36025e-09
6.53147e-09
5.58621e-09
4.65927e-09
3.72878e-09
2.94886e-09
2.23168e-09
1.70567e-09
1.24069e-09
9.60148e-10
7.10927e-10
5.9573e-10
4.75272e-10
4.40126e-10
4.02034e-10
1.49239e-08
1.46287e-08
1.39644e-08
1.38957e-08
1.37185e-08
1.37161e-08
1.38295e-08
1.36874e-08
1.44417e-08
1.48262e-08
1.47206e-08
1.57564e-08
1.67106e-08
1.58775e-08
1.53497e-08
1.63728e-08
1.66327e-08
1.5326e-08
1.35352e-08
1.18995e-08
1.07549e-08
1.0721e-08
1.09652e-08
1.04991e-08
9.44985e-09
8.08529e-09
6.69111e-09
5.37987e-09
4.25826e-09
3.30942e-09
2.55409e-09
1.94825e-09
1.49515e-09
1.14537e-09
9.20202e-10
7.32807e-10
6.33622e-10
5.29653e-10
4.95641e-10
4.55305e-10
1.34731e-08
1.28809e-08
1.20597e-08
1.16731e-08
1.14521e-08
1.11271e-08
1.12796e-08
1.16152e-08
1.17996e-08
1.2401e-08
1.33674e-08
1.37688e-08
1.38447e-08
1.45086e-08
1.49582e-08
1.48637e-08
1.4207e-08
1.33009e-08
1.31501e-08
1.30659e-08
1.22917e-08
1.09413e-08
9.56377e-09
8.23265e-09
7.07538e-09
6.04003e-09
5.15915e-09
4.31403e-09
3.59636e-09
2.89605e-09
2.35097e-09
1.83017e-09
1.47753e-09
1.14359e-09
9.57114e-10
7.61812e-10
6.77214e-10
5.65813e-10
5.42403e-10
4.92126e-10
1.20595e-08
1.1329e-08
1.04132e-08
9.86268e-09
9.54947e-09
9.37607e-09
9.5568e-09
9.89988e-09
1.04662e-08
1.10215e-08
1.14464e-08
1.2188e-08
1.28436e-08
1.29636e-08
1.28469e-08
1.30172e-08
1.31789e-08
1.28165e-08
1.19587e-08
1.10172e-08
1.0092e-08
9.15004e-09
8.39285e-09
7.66684e-09
6.85678e-09
5.91492e-09
4.97878e-09
4.0503e-09
3.25163e-09
2.52422e-09
1.9758e-09
1.47394e-09
1.15563e-09
8.46054e-10
7.01509e-10
5.11357e-10
4.72046e-10
3.59588e-10
3.82866e-10
3.21495e-10
1.10319e-08
1.02144e-08
9.20919e-09
8.51256e-09
8.17385e-09
7.90067e-09
7.96264e-09
8.14952e-09
8.05429e-09
7.69116e-09
7.23011e-09
6.50692e-09
5.3467e-09
4.23497e-09
3.50363e-09
2.88264e-09
2.32908e-09
1.91749e-09
1.70433e-09
1.66699e-09
1.66674e-09
1.55472e-09
1.29347e-09
9.40728e-10
6.16581e-10
3.39221e-10
1.73469e-10
7.32213e-11
3.26243e-11
1.10823e-11
6.00444e-12
2.34166e-12
2.29444e-12
1.2054e-12
1.8424e-12
1.27002e-12
2.32522e-12
1.81453e-12
3.35142e-12
2.54588e-12
2.83749e-09
2.31181e-09
1.86297e-09
1.70182e-09
1.68866e-09
1.59551e-09
1.48804e-09
1.30708e-09
9.54648e-10
5.70854e-10
2.64523e-10
7.12157e-11
5.70927e-12
1.07469e-12
1.4436e-11
4.91389e-11
8.33421e-11
8.30871e-11
5.27221e-11
2.39889e-11
9.49735e-12
3.6883e-12
1.47403e-12
6.85298e-13
3.96701e-13
2.30105e-13
8.90484e-14
4.09559e-14
1.35937e-14
1.20508e-14
1.26084e-14
2.00796e-14
2.70728e-14
2.71679e-14
3.61334e-14
3.14648e-14
4.32382e-14
3.31221e-14
4.40634e-14
2.42213e-14
2.47334e-11
2.09841e-11
1.97274e-11
2.28197e-11
2.71971e-11
2.77242e-11
2.71619e-11
2.46514e-11
1.63215e-11
7.27442e-12
2.06901e-12
1.76453e-13
8.24095e-14
1.70269e-12
5.98391e-12
1.08519e-11
1.35404e-11
1.22927e-11
8.40597e-12
4.62413e-12
2.16278e-12
8.25895e-13
2.47046e-13
4.8437e-14
4.37988e-15
1.29285e-16
6.06359e-16
1.83526e-15
3.76828e-15
4.38246e-15
5.29972e-15
4.45796e-15
4.98373e-15
3.7405e-15
3.90325e-15
2.58271e-15
2.64684e-15
1.55471e-15
1.56484e-15
7.48521e-16
3.30762e-14
1.92159e-14
2.73402e-14
5.06356e-14
6.82916e-14
7.7573e-14
9.20078e-14
7.93331e-14
3.61345e-14
8.22601e-15
6.41806e-16
7.49974e-15
6.52957e-14
1.74183e-13
2.62871e-13
2.82403e-13
2.16473e-13
1.11347e-13
3.64184e-14
7.05563e-15
5.85875e-16
2.17184e-17
1.74095e-16
5.38398e-16
7.5071e-16
7.99253e-16
7.45292e-16
6.49895e-16
5.09864e-16
3.83019e-16
2.63344e-16
1.83399e-16
1.22209e-16
8.5279e-17
5.86536e-17
3.87355e-17
2.93285e-17
1.53923e-17
1.6645e-17
9.51947e-18
)
;

boundaryField
{
    inlet
    {
        type            calculated;
        value           nonuniform List<scalar> 
20
(
1.4663e-34
5.5626e-33
6.40911e-33
3.47599e-34
8.28268e-34
3.22248e-34
4.71353e-34
5.22495e-34
6.95759e-34
9.60511e-34
1.04121e-33
7.8257e-35
1.09779e-33
1.12311e-33
6.29874e-34
1.265e-33
4.76096e-34
6.94333e-33
5.68164e-33
1.45929e-34
)
;
    }
    outlet
    {
        type            calculated;
        value           nonuniform List<scalar> 
27
(
2.22715e-33
1.92708e-33
1.59772e-33
1.20095e-33
4.2689e-34
2.58485e-35
2.24681e-38
2.24585e-36
1.36995e-34
9.31328e-34
1.45053e-33
1.82056e-33
2.12466e-33
2.39679e-33
2.59586e-33
2.43487e-33
1.33948e-34
1.55533e-36
2.00452e-39
6.65775e-40
1.03792e-39
6.56429e-40
1.17288e-36
1.22446e-34
2.68546e-33
2.63588e-33
2.45829e-33
)
;
    }
    lowerWall
    {
        type            fixedValue;
        value           uniform 0;
    }
    upperWall
    {
        type            fixedValue;
        value           uniform 0;
    }
    defaultFaces
    {
        type            empty;
    }
}


// ************************************************************************* //
