/*--------------------------------*- C++ -*----------------------------------*\
| =========                 |                                                 |
| \\      /  F ield         | OpenFOAM: The Open Source CFD Toolbox           |
|  \\    /   O peration     | Version:  2112                                  |
|   \\  /    A nd           | Website:  www.openfoam.com                      |
|    \\/     M anipulation  |                                                 |
\*---------------------------------------------------------------------------*/
FoamFile
{
    version     2.0;
    format      ascii;
    arch        "LSB;label=32;scalar=64";
    class       volScalarField;
    location    "0.22";
    object      p;
}
// * * * * * * * * * * * * * * * * * * * * * * * * * * * * * * * * * * * * * //

dimensions      [0 2 -2 0 0 0 0];

internalField   nonuniform List<scalar> 
1880
(
0.00338806
0.00325064
0.003158
0.00310933
0.00308191
0.00306171
0.00303933
0.00302023
0.00300469
0.00299136
0.00297366
0.00296704
0.0029627
0.00296186
0.00295867
0.00295983
0.00296536
0.00297818
0.0029992
0.00303748
0.00308523
0.00315434
0.00323531
0.00333794
0.00345638
0.00360665
0.00376959
0.00397563
0.0042102
0.00442168
0.00320657
0.00317434
0.00313363
0.00309587
0.00306605
0.00304665
0.0030259
0.00300956
0.00299666
0.0029849
0.00296438
0.00295707
0.00295452
0.00295352
0.00294889
0.00294584
0.00295427
0.00296291
0.00298862
0.00301892
0.00306949
0.0031309
0.00320491
0.00330414
0.00339898
0.00355138
0.00366043
0.00388852
0.00400337
0.0042363
0.00317295
0.00315284
0.00312273
0.00308905
0.00306055
0.00304089
0.00301991
0.00300198
0.00299093
0.00297954
0.00295968
0.00294785
0.00294616
0.00294316
0.00293774
0.00293374
0.00294305
0.00295437
0.00297362
0.00300094
0.00303865
0.00308963
0.00315002
0.00322241
0.00330779
0.00340254
0.00350696
0.00361278
0.00370455
0.00376387
0.00311462
0.00310487
0.00308829
0.00306505
0.0030427
0.0030263
0.00300587
0.00298731
0.00297742
0.00296764
0.00294812
0.00293392
0.00293176
0.00292765
0.00292113
0.00291399
0.00292138
0.0029287
0.00294361
0.00296321
0.00299044
0.00303245
0.00307137
0.00313119
0.00318365
0.0032511
0.00331424
0.00336706
0.00340663
0.0034057
0.00308562
0.00307997
0.00306898
0.00305055
0.00303155
0.00301697
0.00299688
0.00297688
0.00296709
0.00295715
0.00293818
0.0029209
0.00291799
0.0029108
0.00290308
0.00289262
0.00289718
0.00290053
0.00290945
0.002921
0.00293894
0.0029654
0.00299094
0.00302714
0.00305733
0.00309373
0.0031188
0.00313226
0.00312336
0.00308161
0.00305835
0.00305414
0.00304587
0.00303077
0.00301474
0.00300258
0.00298357
0.00296328
0.00295304
0.00294304
0.00292373
0.00290506
0.00290004
0.00289121
0.00288051
0.00286766
0.00286674
0.0028668
0.00286754
0.00287232
0.00287845
0.00289212
0.00290354
0.00291708
0.00292995
0.00293232
0.00293342
0.00291037
0.00286907
0.00279853
0.00303782
0.00303475
0.00302835
0.00301541
0.00300135
0.00299064
0.00297232
0.00295155
0.00294058
0.00292961
0.00290972
0.00288913
0.00288227
0.00287049
0.00285704
0.00284053
0.00283515
0.00283005
0.00282368
0.00282035
0.00281584
0.00281714
0.00281358
0.00281004
0.00280164
0.00278296
0.00275804
0.00270947
0.00264309
0.00254938
0.00302142
0.00301883
0.00301327
0.00300137
0.00298827
0.00297825
0.0029602
0.00293909
0.00292722
0.00291525
0.00289404
0.00287197
0.00286246
0.00284852
0.0028312
0.00281164
0.00280051
0.00279095
0.00277722
0.00276551
0.00275207
0.0027395
0.00272551
0.00270332
0.00268021
0.00264251
0.00259614
0.00252978
0.00244222
0.00232965
0.0030087
0.0030063
0.0030011
0.00298968
0.00297701
0.00296719
0.00294902
0.00292734
0.00291448
0.00290123
0.00287852
0.00285468
0.00284265
0.00282612
0.00280509
0.00278186
0.00276548
0.00275106
0.00273016
0.00271095
0.002688
0.00266491
0.00263931
0.00260361
0.00256601
0.00251305
0.00244996
0.00236805
0.00226461
0.00213958
0.00299941
0.00299703
0.00299185
0.0029804
0.00296763
0.0029575
0.00293882
0.00291631
0.00290224
0.00288761
0.00286306
0.00283738
0.00282255
0.00280353
0.00277865
0.00275168
0.00273034
0.00271066
0.00268386
0.00265647
0.00262636
0.00259268
0.00255767
0.0025106
0.00245998
0.00239594
0.00231793
0.0022242
0.00211054
0.00197481
0.00299354
0.002991
0.00298554
0.00297364
0.0029603
0.00294941
0.00292981
0.00290616
0.0028907
0.00287456
0.00284803
0.00282035
0.00280272
0.00278119
0.00275256
0.00272188
0.00269567
0.00267112
0.00263849
0.00260433
0.00256699
0.00252508
0.00248119
0.00242484
0.00236357
0.00228975
0.0022008
0.00209807
0.00197631
0.0018339
0.00299116
0.00298831
0.00298231
0.00296961
0.00295529
0.00294326
0.00292244
0.00289741
0.00288043
0.00286269
0.00283407
0.00280425
0.00278381
0.00275973
0.00272754
0.00269312
0.0026626
0.00263307
0.00259558
0.00255489
0.00251146
0.00246241
0.00241065
0.00234712
0.00227651
0.0021952
0.00209819
0.00198807
0.00186137
0.00171414
0.00299253
0.00298913
0.00298215
0.00296803
0.0029521
0.00293835
0.00291586
0.00288921
0.00287067
0.00285133
0.00282056
0.0027886
0.00276545
0.00273895
0.00270335
0.00266541
0.00263079
0.00259677
0.00255475
0.0025086
0.00245962
0.0024048
0.00234641
0.00227693
0.00219924
0.00211179
0.00200898
0.0018937
0.00176307
0.00161335
0.00299847
0.00299446
0.00298634
0.00297057
0.00295276
0.00293703
0.00291265
0.00288427
0.00286404
0.00284279
0.00280958
0.0027752
0.00274935
0.00272027
0.00268139
0.00263991
0.00260159
0.00256328
0.00251729
0.00246633
0.0024126
0.00235305
0.00228905
0.0022149
0.00213181
0.00203952
0.00193288
0.0018136
0.00168057
0.00152969
0.00300884
0.00300332
0.00299274
0.00297392
0.00295307
0.00293446
0.00290781
0.00287775
0.00285601
0.00283284
0.00279729
0.00276088
0.00273299
0.00270185
0.00266005
0.00261545
0.00257375
0.00253164
0.00248207
0.00242718
0.0023695
0.00230635
0.00223804
0.00216037
0.00207344
0.0019776
0.00186839
0.00174674
0.00161212
0.00146102
0.00302829
0.00302115
0.00300747
0.00298469
0.00296002
0.00293786
0.00290874
0.00287726
0.00285399
0.00282851
0.00279036
0.00275195
0.00272178
0.00268814
0.00264319
0.00259522
0.00255025
0.0025044
0.00245145
0.00239307
0.00233205
0.00226607
0.00219449
0.0021142
0.00202471
0.00192634
0.00181564
0.00169256
0.00155708
0.00140639
0.00304917
0.00303775
0.00301818
0.00298995
0.0029612
0.002936
0.0029054
0.00287331
0.00284845
0.00282017
0.00277961
0.00273987
0.002708
0.00267187
0.00262412
0.00257353
0.00252571
0.00247676
0.00242105
0.00236038
0.00229735
0.0022299
0.00215651
0.00207486
0.00198413
0.00188437
0.00177301
0.00164956
0.00151404
0.00136404
0.00310275
0.00308072
0.00304719
0.00300794
0.0029723
0.00294295
0.00291077
0.00287799
0.00285055
0.00281852
0.0027758
0.00273547
0.00270186
0.00266314
0.00261328
0.00256113
0.00251076
0.0024575
0.00239816
0.00233488
0.00227001
0.0022014
0.00212692
0.00204453
0.00195334
0.00185288
0.00174138
0.00161801
0.00148277
0.00133412
0.00313172
0.00309743
0.00305324
0.00300936
0.00297205
0.0029418
0.00290939
0.00287638
0.00284675
0.0028115
0.00276738
0.00272715
0.00269221
0.0026514
0.00259937
0.00254356
0.00248747
0.00242909
0.00236814
0.00230548
0.0022419
0.00217477
0.00210132
0.00202014
0.00193006
0.00182999
0.00171915
0.00159657
0.00146166
0.00131357
0.0033115
0.00317186
0.00307529
0.0030203
0.00298502
0.00295358
0.00291866
0.00288262
0.00284913
0.0028118
0.00276891
0.00272877
0.00269072
0.0026476
0.00259642
0.00254135
0.00248357
0.00242271
0.00235971
0.00229573
0.00223084
0.00216317
0.00208972
0.00200893
0.00191921
0.00181945
0.00170896
0.00158726
0.0014537
0.00130827
0.00459533
0.0041648
0.00355098
0.00309113
0.00253896
0.00191369
0.000889872
-0.00025089
-0.00131304
-0.00304709
0.00429425
0.00368326
0.00304915
0.00266109
0.0020429
0.0013383
0.000303509
-0.000807175
-0.00167227
-0.00298596
0.00375989
0.00335356
0.00283701
0.00244529
0.00177711
0.00117535
0.000341136
-0.000616078
-0.00164663
-0.0026833
0.00337775
0.00297274
0.0024957
0.00204237
0.00146335
0.000777854
7.80313e-05
-0.000806452
-0.00169904
-0.00259095
0.00300803
0.00267121
0.00222823
0.00182026
0.00128056
0.000678669
1.41778e-05
-0.000771973
-0.00159526
-0.00238969
0.00270195
0.00237524
0.00198709
0.00153874
0.00106619
0.000455538
-0.000150807
-0.00083894
-0.00156666
-0.00224911
0.00242934
0.0021389
0.0017671
0.001358
0.000917991
0.000381013
-0.000195086
-0.000813421
-0.00143968
-0.00204481
0.00219871
0.00191913
0.00158047
0.0011775
0.000764597
0.000268866
-0.000263093
-0.000821532
-0.00136792
-0.00189805
0.0019964
0.00173963
0.00141654
0.00104534
0.000659126
0.000213487
-0.000276261
-0.00077763
-0.00125717
-0.00172355
0.00182502
0.00158127
0.00127949
0.000929612
0.000564049
0.00015516
-0.000290417
-0.000746159
-0.00117335
-0.00158944
0.00167797
0.00144998
0.00116452
0.000839823
0.000497652
0.000122011
-0.000283861
-0.000693965
-0.00107851
-0.00145013
0.00155467
0.00133807
0.00107007
0.000766468
0.000444073
9.53422e-05
-0.000273789
-0.000646776
-0.000997729
-0.00133581
0.00145139
0.00124534
0.000993184
0.00070933
0.000406486
8.20099e-05
-0.000255743
-0.000595654
-0.000918413
-0.00122759
0.00136652
0.00116882
0.000931282
0.00066478
0.000379765
7.62258e-05
-0.000235515
-0.000548401
-0.000848275
-0.00113525
0.00129743
0.00110648
0.000881895
0.000630938
0.000362183
7.75764e-05
-0.000212898
-0.00050368
-0.000784269
-0.0010528
0.00124312
0.00105767
0.000844231
0.00060675
0.000352571
8.41647e-05
-0.000189428
-0.000462783
-0.00072806
-0.000982285
0.00120097
0.00101929
0.000814805
0.000589063
0.000347673
9.33624e-05
-0.00016641
-0.000426187
-0.000679197
-0.000922231
0.00117247
0.000994145
0.000796557
0.000579903
0.00034882
0.0001057
-0.000143798
-0.000394067
-0.000638379
-0.000873252
0.00115191
0.000975633
0.000783602
0.000574989
0.000352733
0.00011866
-0.000122134
-0.0003649
-0.000603457
-0.000832739
0.00114968
0.000975282
0.000785406
0.000579774
0.000360855
0.000130523
-0.000106424
-0.000346
-0.000582278
-0.000811731
-0.00600212
-0.00614508
-0.00639263
-0.00727004
-0.00948914
-0.0121375
-0.0131401
-0.0124796
-0.0104506
-0.00747979
-0.00415517
-0.00130092
0.000829811
0.00213523
0.00268355
0.00280224
0.00264645
0.00237773
0.00208211
0.00180195
0.00155288
0.00133737
0.00115165
0.000990552
0.000851108
0.000730817
0.000627372
0.000538561
0.000462157
0.000396149
0.000338643
0.000288103
0.000243098
0.000202623
0.000165676
0.00013162
9.97861e-05
6.97338e-05
4.1076e-05
1.34241e-05
-0.00614495
-0.00623254
-0.00651497
-0.00775447
-0.0105436
-0.0133293
-0.0141803
-0.0133266
-0.0111945
-0.00812452
-0.00464783
-0.00163157
0.000593082
0.00196074
0.00255317
0.00269603
0.00256166
0.00230918
0.00202718
0.00175829
0.00151851
0.00131056
0.00113032
0.000974049
0.000838428
0.000721337
0.000620519
0.000533747
0.000458816
0.000393841
0.000337063
0.00028702
0.000242361
0.000202117
0.000165356
0.000131418
9.96952e-05
6.9695e-05
4.10742e-05
1.34737e-05
-0.00560369
-0.00594074
-0.00681652
-0.00878104
-0.0122263
-0.0152295
-0.0158763
-0.0146899
-0.0124589
-0.00926679
-0.00555719
-0.00229894
0.000115852
0.00158162
0.00225622
0.00245143
0.00236323
0.00214626
0.00189447
0.00165338
0.00143841
0.00125093
0.00108706
0.000943326
0.000817424
0.000707278
0.000611136
0.000527475
0.000454612
0.000390877
0.00033494
0.000285481
0.000241277
0.000201375
0.000164906
0.000131206
9.96848e-05
6.98441e-05
4.1284e-05
1.36531e-05
-0.00594537
-0.00613512
-0.00693104
-0.00942935
-0.0135751
-0.0170037
-0.017614
-0.0162056
-0.0138332
-0.0106617
-0.00673578
-0.00316572
-0.000561791
0.00104104
0.00180616
0.00207231
0.00205567
0.00190492
0.00170869
0.00151199
0.00133205
0.00117127
0.00102746
0.000898603
0.000783488
0.000681375
0.000591356
0.000512354
0.000443062
0.000382232
0.000328421
0.000280509
0.000237473
0.000198475
0.000162739
0.000129635
9.86041e-05
6.91824e-05
4.09555e-05
1.35724e-05
-0.00540208
-0.00604806
-0.00724165
-0.0100821
-0.0143572
-0.0180614
-0.0185826
-0.0170937
-0.0148522
-0.0118404
-0.00780237
-0.00401493
-0.0012301
0.000484747
0.00132304
0.00163181
0.00166754
0.00158328
0.00145918
0.0013282
0.00119759
0.00107063
0.0009509
0.000840148
0.000738968
0.000647477
0.00056545
0.000492421
0.000427618
0.000370129
0.000318904
0.000273028
0.00023163
0.000193953
0.000159289
0.000127083
9.68066e-05
6.80246e-05
4.03351e-05
1.3401e-05
-0.00560308
-0.00564163
-0.00697757
-0.00985028
-0.0142511
-0.0180975
-0.0187557
-0.0170984
-0.0148725
-0.0120883
-0.00824825
-0.00454206
-0.00181638
-9.11719e-05
0.000844063
0.00123632
0.00133305
0.00129723
0.00121889
0.00113542
0.00105126
0.000961649
0.000868115
0.000775886
0.000688644
0.00060801
0.000534495
0.000468127
0.000408518
0.000355052
0.00030696
0.000263528
0.000224054
0.000187944
0.000154602
0.000123518
9.42057e-05
6.62679e-05
3.93197e-05
1.30689e-05
-0.00523556
-0.00569346
-0.00652384
-0.00937557
-0.0131257
-0.0164352
-0.0171204
-0.0157014
-0.0136861
-0.0113147
-0.00803265
-0.00470581
-0.00222343
-0.000665966
0.000281344
0.000784781
0.00100632
0.0010543
0.00102174
0.000973705
0.000919679
0.000854431
0.000781046
0.00070596
0.000632771
0.000563284
0.000498515
0.000438978
0.00038476
0.000335644
0.000291175
0.000250808
0.000213938
0.000180006
0.000148467
0.00011888
9.08287e-05
6.39801e-05
3.79994e-05
1.26356e-05
-0.00470948
-0.00343852
-0.00611106
-0.00881597
-0.011888
-0.0146973
-0.0153913
-0.0140873
-0.0122712
-0.0102657
-0.0075072
-0.00460945
-0.0023949
-0.0010157
-0.000162127
0.000353707
0.000650236
0.000792336
0.000834837
0.000827108
0.000798715
0.000754342
0.0006975
0.000635053
0.00057304
0.000514108
0.000458556
0.000407055
0.000359472
0.000315656
0.000275286
0.000238041
0.000203568
0.000171564
0.000141673
0.000113565
8.68672e-05
6.12531e-05
3.64115e-05
1.21137e-05
-0.00414013
-0.00480004
-0.00648329
-0.0086389
-0.0109483
-0.0130816
-0.0135316
-0.012316
-0.0106437
-0.00890259
-0.00660764
-0.0042313
-0.00239209
-0.00119731
-0.000412282
8.65148e-05
0.000383321
0.000548057
0.00063498
0.000674961
0.000676487
0.00064955
0.000608942
0.000562822
0.000514126
0.000464448
0.000416438
0.00037119
0.000328795
0.000289492
0.00025325
0.00021985
0.000188907
0.000160011
0.000132762
0.00010684
8.1963e-05
5.79146e-05
3.44716e-05
1.14685e-05
-0.00381937
-0.00437785
-0.0057712
-0.00756223
-0.00922938
-0.0106504
-0.0111147
-0.0103468
-0.00900002
-0.00749304
-0.00567035
-0.00385202
-0.00238133
-0.00135385
-0.000642211
-0.000152781
0.000157672
0.00033787
0.000440996
0.00049459
0.000517431
0.000523372
0.000508411
0.000478755
0.000441411
0.000404705
0.000369261
0.000333277
0.000298897
0.000266268
0.000235065
0.000205292
0.00017696
0.000150078
0.000124548
0.000100244
7.69396e-05
5.44054e-05
3.24117e-05
1.07908e-05
-0.0034842
-0.00409496
-0.00513428
-0.0065287
-0.00774447
-0.00861886
-0.00893828
-0.00852269
-0.00758104
-0.00639574
-0.00499968
-0.00360199
-0.00240074
-0.00148568
-0.000826597
-0.000365217
-5.22547e-05
0.000147021
0.000268754
0.000336202
0.000362607
0.000367699
0.000372085
0.000376493
0.000375086
0.000358245
0.000329122
0.000296653
0.000265952
0.000236347
0.000208769
0.000183055
0.000158829
0.000135763
0.000113567
9.20264e-05
7.0993e-05
5.03723e-05
3.00674e-05
1.0008e-05
-0.00314296
-0.00371667
-0.00450296
-0.00556889
-0.00642627
-0.00700761
-0.00732213
-0.00710959
-0.00641607
-0.00551123
-0.00444564
-0.00333488
-0.00234827
-0.00157787
-0.00100543
-0.000580545
-0.00027961
-6.81395e-05
9.28984e-05
0.000188683
0.000215983
0.000229831
0.00025548
0.000274153
0.00027811
0.00027351
0.00026514
0.000251109
0.000233078
0.000212882
0.000191204
0.000169088
0.000147158
0.000125759
0.000105011
8.49501e-05
6.54796e-05
4.64639e-05
2.77565e-05
9.24843e-06
-0.00283636
-0.0033568
-0.00399494
-0.00480038
-0.00546279
-0.00593123
-0.00615113
-0.00603336
-0.00554722
-0.00482296
-0.0039731
-0.00308742
-0.0022847
-0.00162525
-0.0011041
-0.000696791
-0.000402416
-0.000196528
-3.89204e-05
7.75309e-05
0.000156971
0.000209199
0.000235345
0.000244062
0.000249304
0.000244269
0.000230569
0.000214738
0.00019653
0.000178196
0.000160373
0.00014305
0.000126082
0.000109288
9.25337e-05
7.57321e-05
5.88829e-05
4.20206e-05
2.51799e-05
8.3866e-06
-0.00256123
-0.00302837
-0.00354936
-0.00417505
-0.00470989
-0.00506113
-0.00522887
-0.00515696
-0.00479286
-0.00423679
-0.00358418
-0.00288385
-0.00221491
-0.00164543
-0.0011854
-0.000816281
-0.000528388
-0.000313425
-0.00015928
-5.26572e-05
2.34091e-06
3.12932e-05
7.37459e-05
0.000132934
0.000177097
0.000196433
0.000196745
0.000188002
0.000175678
0.00016185
0.00014707
0.000131658
0.000115891
0.000100036
8.42564e-05
6.86667e-05
5.32625e-05
3.7988e-05
2.27821e-05
7.59856e-06
-0.00232609
-0.00273602
-0.00317978
-0.00367963
-0.00410688
-0.00440093
-0.00453816
-0.00448327
-0.00421168
-0.00377319
-0.00324295
-0.00268095
-0.00214105
-0.00165771
-0.00124754
-0.000915114
-0.000647669
-0.000437184
-0.000261643
-0.000128037
-5.8269e-05
-2.2764e-05
1.35244e-05
5.74111e-05
9.07536e-05
0.00011097
0.000121149
0.000124436
0.000122779
0.000117888
0.000110942
0.000102545
9.30323e-05
8.25551e-05
7.12345e-05
5.91685e-05
4.65243e-05
3.34707e-05
2.01676e-05
6.72439e-06
-0.00211227
-0.00247723
-0.00285514
-0.00326399
-0.00361845
-0.00385409
-0.00396466
-0.00393151
-0.00372734
-0.00338311
-0.00296059
-0.00250579
-0.00205517
-0.00163737
-0.00126978
-0.000962894
-0.000718258
-0.000526104
-0.000376648
-0.000257721
-0.000160144
-7.83032e-05
-7.23891e-06
4.47594e-05
7.87234e-05
9.9068e-05
0.000109416
0.000113044
0.000112166
0.000108125
0.000101744
9.36444e-05
8.43026e-05
7.41291e-05
6.3411e-05
5.23562e-05
4.10546e-05
2.95318e-05
1.78213e-05
5.95198e-06
-0.00192885
-0.00225119
-0.00258205
-0.0029258
-0.00321889
-0.0034245
-0.00352248
-0.00349129
-0.00333121
-0.00306827
-0.0027307
-0.00235137
-0.00197107
-0.00162052
-0.00131064
-0.0010378
-0.000801811
-0.000605461
-0.000443525
-0.000320894
-0.0002258
-0.000156855
-0.000102679
-5.51731e-05
-1.61534e-05
1.3409e-05
3.47626e-05
4.9468e-05
5.88725e-05
6.40849e-05
6.60139e-05
6.52788e-05
6.2355e-05
5.75573e-05
5.11801e-05
4.3473e-05
3.47508e-05
2.52967e-05
1.53682e-05
5.13335e-06
-0.00176374
-0.00205444
-0.00234462
-0.00263701
-0.00288863
-0.00306096
-0.00314701
-0.00313476
-0.00301076
-0.00279591
-0.00252344
-0.00221741
-0.00190099
-0.00159539
-0.00131196
-0.00106016
-0.000847105
-0.000670667
-0.00052907
-0.000403673
-0.000296455
-0.000206088
-0.000131661
-7.25121e-05
-2.77573e-05
4.62851e-06
2.72468e-05
4.2426e-05
5.19117e-05
5.6972e-05
5.85686e-05
5.74796e-05
5.43276e-05
4.96349e-05
4.3791e-05
3.70742e-05
2.9659e-05
2.16569e-05
1.3207e-05
4.42005e-06
-0.00162106
-0.0018845
-0.00214338
-0.00239871
-0.00261557
-0.00276918
-0.00284843
-0.00284129
-0.00274503
-0.0025766
-0.00235553
-0.00210024
-0.00183036
-0.00156754
-0.00132569
-0.00110576
-0.0009049
-0.00073021
-0.000580602
-0.000455406
-0.000351365
-0.000268813
-0.00020234
-0.000146408
-0.000100122
-6.2938e-05
-3.35761e-05
-1.07481e-05
6.60199e-06
1.9287e-05
2.80274e-05
3.33677e-05
3.58059e-05
3.57218e-05
3.35157e-05
2.95535e-05
2.42643e-05
1.80039e-05
1.1085e-05
3.71422e-06
-0.00149481
-0.00173748
-0.00197082
-0.00219596
-0.0023876
-0.0025237
-0.00259663
-0.00260001
-0.00252718
-0.0023912
-0.00220999
-0.00199785
-0.00177069
-0.00154487
-0.00132743
-0.00112182
-0.000935864
-0.000774328
-0.000637684
-0.00051739
-0.00040995
-0.000317524
-0.000238239
-0.000172201
-0.000118742
-7.65508e-05
-4.3948e-05
-1.92721e-05
-1.07088e-06
1.18373e-05
2.04481e-05
2.56043e-05
2.8008e-05
2.82426e-05
2.67586e-05
2.38753e-05
1.98522e-05
1.4896e-05
9.25208e-06
3.1084e-06
-0.00138573
-0.00161198
-0.00182573
-0.00202837
-0.00220079
-0.00232342
-0.00239264
-0.00240228
-0.00234708
-0.00223775
-0.0020899
-0.00191368
-0.00171911
-0.00152022
-0.00132847
-0.00114822
-0.000978643
-0.000822852
-0.000684079
-0.000560611
-0.000453698
-0.000362331
-0.000286511
-0.000222847
-0.000169297
-0.000124782
-8.82134e-05
-5.85441e-05
-3.48328e-05
-1.63343e-05
-2.35087e-06
7.6835e-06
1.42957e-05
1.79162e-05
1.90338e-05
1.81187e-05
1.56625e-05
1.20399e-05
7.59233e-06
2.55915e-06
-0.00129112
-0.00150494
-0.00170345
-0.00188761
-0.00204385
-0.00215709
-0.00222311
-0.00223828
-0.00219873
-0.002112
-0.0019898
-0.00184044
-0.00167442
-0.00150351
-0.00133376
-0.00116642
-0.00100534
-0.000857682
-0.00072513
-0.000606938
-0.000500495
-0.000405677
-0.000322957
-0.000251504
-0.000191281
-0.000141514
-0.00010111
-6.88934e-05
-4.36695e-05
-2.43736e-05
-1.00337e-05
2.70133e-07
7.24583e-06
1.14974e-05
1.35149e-05
1.36646e-05
1.22958e-05
9.70861e-06
6.2308e-06
2.11142e-06
-0.00121072
-0.00141513
-0.00160219
-0.00177269
-0.00191654
-0.00202177
-0.00208541
-0.00210522
-0.00207762
-0.0020081
-0.00190734
-0.00178286
-0.00164125
-0.00149045
-0.00133759
-0.00118615
-0.00103891
-0.00089861
-0.000767711
-0.000647029
-0.000537188
-0.000440224
-0.000356213
-0.000284482
-0.000223748
-0.000172536
-0.00012976
-9.44617e-05
-6.57224e-05
-4.28059e-05
-2.50069e-05
-1.1402e-05
-1.65854e-06
4.74313e-06
8.39018e-06
9.80805e-06
9.48386e-06
7.81018e-06
5.13702e-06
1.75206e-06
-0.00114342
-0.00134107
-0.0015196
-0.0016791
-0.00181266
-0.00191179
-0.00197376
-0.00199661
-0.00197855
-0.00192474
-0.00184269
-0.00173732
-0.00161474
-0.0014832
-0.00134779
-0.00120946
-0.00106985
-0.000933355
-0.000804083
-0.000683833
-0.000573854
-0.00047486
-0.00038703
-0.000310535
-0.00024442
-0.000188398
-0.000141865
-0.000103839
-7.32267e-05
-4.90698e-05
-3.07725e-05
-1.67069e-05
-6.47683e-06
5.71434e-07
4.96553e-06
7.14331e-06
7.5308e-06
6.52002e-06
4.42325e-06
1.54194e-06
-0.00108907
-0.00128275
-0.00145608
-0.00160742
-0.00173227
-0.0018258
-0.00188574
-0.00191083
-0.0019007
-0.00185905
-0.00179172
-0.00170379
-0.00159996
-0.00148497
-0.0013618
-0.00123273
-0.00110039
-0.000968215
-0.000839837
-0.000717913
-0.000604529
-0.000501601
-0.000410307
-0.000330911
-0.000263211
-0.00020586
-0.00015778
-0.000117992
-8.54828e-05
-5.93314e-05
-3.83349e-05
-2.25698e-05
-1.09069e-05
-2.78481e-06
2.44346e-06
5.29273e-06
6.23133e-06
5.64773e-06
3.9429e-06
1.41324e-06
-0.0010451
-0.00123669
-0.00140755
-0.00155443
-0.00167333
-0.00176241
-0.00182023
-0.00184619
-0.00184183
-0.00181014
-0.00175507
-0.00168149
-0.0015937
-0.00149406
-0.0013837
-0.00126375
-0.00113632
-0.00100496
-0.000874182
-0.000748338
-0.000630908
-0.000524191
-0.000429362
-0.000346716
-0.000275413
-0.000215055
-0.000164552
-0.000122948
-8.91142e-05
-6.20343e-05
-4.06624e-05
-2.45076e-05
-1.24957e-05
-4.01875e-06
1.56857e-06
4.73605e-06
5.95232e-06
5.61832e-06
4.03545e-06
1.53904e-06
-0.00102642
-0.00121803
-0.00138614
-0.00152902
-0.00164459
-0.00173138
-0.00178787
-0.00181405
-0.00181206
-0.0017846
-0.0017351
-0.00166806
-0.00158712
-0.00149385
-0.00138877
-0.00127294
-0.00114852
-0.00101887
-0.000888507
-0.000762059
-0.000643393
-0.000535024
-0.000438418
-0.000354032
-0.000281435
-0.000220022
-0.000168724
-0.000126424
-9.19594e-05
-6.4323e-05
-4.25358e-05
-2.59096e-05
-1.35318e-05
-4.78528e-06
1.02784e-06
4.35403e-06
5.71845e-06
5.48296e-06
3.97976e-06
1.56428e-06
)
;

boundaryField
{
    inlet
    {
        type            zeroGradient;
    }
    outlet
    {
        type            fixedValue;
        value           uniform 0;
    }
    lowerWall
    {
        type            zeroGradient;
    }
    upperWall
    {
        type            zeroGradient;
    }
    defaultFaces
    {
        type            empty;
    }
}


// ************************************************************************* //
