/*--------------------------------*- C++ -*----------------------------------*\
| =========                 |                                                 |
| \\      /  F ield         | OpenFOAM: The Open Source CFD Toolbox           |
|  \\    /   O peration     | Version:  2112                                  |
|   \\  /    A nd           | Website:  www.openfoam.com                      |
|    \\/     M anipulation  |                                                 |
\*---------------------------------------------------------------------------*/
FoamFile
{
    version     2.0;
    format      ascii;
    arch        "LSB;label=32;scalar=64";
    class       surfaceScalarField;
    location    "0.22";
    object      phi;
}
// * * * * * * * * * * * * * * * * * * * * * * * * * * * * * * * * * * * * * //

dimensions      [0 3 -1 0 0 0 0];

oriented        oriented;

internalField   nonuniform List<scalar> 
3653
(
9.92699e-07
7.30057e-09
9.79161e-07
1.35388e-08
9.64056e-07
1.51042e-08
9.48643e-07
1.54129e-08
9.32113e-07
1.65301e-08
9.15225e-07
1.68887e-08
8.97918e-07
1.73067e-08
8.8077e-07
1.7148e-08
8.61859e-07
1.8911e-08
8.4399e-07
1.78691e-08
8.24634e-07
1.93554e-08
8.07782e-07
1.68521e-08
7.88144e-07
1.96382e-08
7.71184e-07
1.69607e-08
7.49882e-07
2.13011e-08
7.31047e-07
1.88351e-08
7.09466e-07
2.15813e-08
6.92432e-07
1.70337e-08
6.74437e-07
1.79953e-08
6.61304e-07
1.31327e-08
6.45614e-07
1.56903e-08
6.32809e-07
1.28054e-08
6.16737e-07
1.60716e-08
5.96815e-07
1.9922e-08
5.77978e-07
1.88373e-08
5.43673e-07
3.43052e-08
5.13055e-07
3.06173e-08
4.60084e-07
5.29711e-08
3.98095e-07
6.19895e-08
9.1643e-08
3.06452e-07
1.00296e-06
4.3384e-09
1.00647e-06
1.00325e-08
1.00885e-06
1.27232e-08
1.01029e-06
1.397e-08
1.01133e-06
1.54927e-08
1.01182e-06
1.63979e-08
1.01177e-06
1.73555e-08
1.01139e-06
1.75269e-08
1.01043e-06
1.9873e-08
1.00915e-06
1.91486e-08
1.00647e-06
2.20351e-08
1.0043e-06
1.90248e-08
9.99972e-07
2.39649e-08
9.97727e-07
1.92062e-08
9.92791e-07
2.62365e-08
9.89608e-07
2.20179e-08
9.83694e-07
2.74962e-08
9.77279e-07
2.34485e-08
9.70019e-07
2.52555e-08
9.61668e-07
2.14834e-08
9.50023e-07
2.73347e-08
9.43329e-07
1.94995e-08
9.22753e-07
3.6648e-08
9.17482e-07
2.51925e-08
8.86926e-07
4.93942e-08
8.7541e-07
4.58203e-08
8.3714e-07
6.88878e-08
8.09517e-07
8.0594e-08
7.5543e-07
1.16077e-07
1.35033e-07
7.12039e-07
1.00178e-06
2.56329e-09
1.00489e-06
6.91693e-09
1.00771e-06
9.90616e-09
1.00997e-06
1.17028e-08
1.01208e-06
1.33858e-08
1.01403e-06
1.44489e-08
1.01578e-06
1.56077e-08
1.01729e-06
1.60149e-08
1.01892e-06
1.82458e-08
1.02024e-06
1.78295e-08
1.02124e-06
2.10314e-08
1.02198e-06
1.82901e-08
1.02174e-06
2.41962e-08
1.02235e-06
1.86012e-08
1.02112e-06
2.74614e-08
1.02252e-06
2.06198e-08
1.02e-06
3.00225e-08
1.01952e-06
2.39285e-08
1.01429e-06
3.04772e-08
1.00907e-06
2.67033e-08
1.0019e-06
3.4511e-08
9.91689e-07
2.97082e-08
9.82609e-07
4.57281e-08
9.68673e-07
3.91287e-08
9.57099e-07
6.09684e-08
9.37918e-07
6.5001e-08
9.24524e-07
8.22822e-08
9.00694e-07
1.04423e-07
8.77825e-07
1.38946e-07
1.41265e-07
8.71594e-07
1.00081e-06
1.74928e-09
1.00258e-06
5.14917e-09
1.00459e-06
7.89782e-09
1.00654e-06
9.75385e-09
1.00844e-06
1.14861e-08
1.01022e-06
1.26643e-08
1.01183e-06
1.40039e-08
1.01338e-06
1.44614e-08
1.01513e-06
1.64999e-08
1.01663e-06
1.6331e-08
1.01812e-06
1.95408e-08
1.01877e-06
1.76335e-08
1.01992e-06
2.30457e-08
1.01992e-06
1.85999e-08
1.02103e-06
2.63563e-08
1.02093e-06
2.07169e-08
1.02119e-06
2.97603e-08
1.01991e-06
2.52156e-08
1.01683e-06
3.35592e-08
1.01339e-06
3.01352e-08
1.00682e-06
4.10892e-08
1.00102e-06
3.55076e-08
9.92243e-07
5.45012e-08
9.8417e-07
4.72009e-08
9.73397e-07
7.17421e-08
9.65279e-07
7.31191e-08
9.49788e-07
9.77733e-08
9.43905e-07
1.10306e-07
9.32079e-07
1.50773e-07
1.56045e-07
9.17298e-07
1.0004e-06
1.35196e-09
1.00157e-06
3.97653e-09
1.00316e-06
6.30663e-09
1.00484e-06
8.07943e-09
1.0066e-06
9.7259e-09
1.00824e-06
1.10226e-08
1.00986e-06
1.23798e-08
1.01127e-06
1.30525e-08
1.01301e-06
1.4758e-08
1.01431e-06
1.50302e-08
1.01601e-06
1.78454e-08
1.01668e-06
1.69666e-08
1.01825e-06
2.14699e-08
1.0181e-06
1.8753e-08
1.0197e-06
2.47551e-08
1.01865e-06
2.17669e-08
1.02018e-06
2.82294e-08
1.01751e-06
2.7881e-08
1.01802e-06
3.30511e-08
1.01299e-06
3.51645e-08
1.01152e-06
4.25636e-08
1.00507e-06
4.19606e-08
1.00063e-06
5.89382e-08
9.94451e-07
5.33794e-08
9.87135e-07
7.90576e-08
9.81315e-07
7.89388e-08
9.74363e-07
1.04726e-07
9.6884e-07
1.15829e-07
9.6789e-07
1.51723e-07
1.57997e-07
9.65939e-07
1.00032e-06
1.03669e-09
1.00117e-06
3.12441e-09
1.0024e-06
5.07596e-09
1.0038e-06
6.6814e-09
1.00537e-06
8.15528e-09
1.00691e-06
9.47809e-09
1.0085e-06
1.07922e-08
1.00988e-06
1.1676e-08
1.01157e-06
1.30675e-08
1.01285e-06
1.37507e-08
1.01461e-06
1.60776e-08
1.01538e-06
1.62035e-08
1.01711e-06
1.97376e-08
1.01721e-06
1.8648e-08
1.01873e-06
2.32431e-08
1.01841e-06
2.2079e-08
1.01919e-06
2.74504e-08
1.01859e-06
2.84837e-08
1.01777e-06
3.38728e-08
1.01614e-06
3.67964e-08
1.01433e-06
4.43739e-08
1.01031e-06
4.5981e-08
1.00882e-06
6.04235e-08
1.0029e-06
5.92965e-08
1.00098e-06
8.098e-08
9.96862e-07
8.30573e-08
9.94316e-07
1.07271e-07
9.92982e-07
1.17163e-07
9.96243e-07
1.48462e-07
1.58116e-07
9.96124e-07
1.00022e-06
8.13077e-10
1.00088e-06
2.4722e-09
1.00188e-06
4.072e-09
1.00309e-06
5.4681e-09
1.00454e-06
6.71201e-09
1.00601e-06
8.00068e-09
1.00761e-06
9.1975e-09
1.00901e-06
1.02728e-08
1.01071e-06
1.13713e-08
1.01204e-06
1.24193e-08
1.01389e-06
1.42231e-08
1.01482e-06
1.52752e-08
1.01676e-06
1.78001e-08
1.01697e-06
1.84352e-08
1.01902e-06
2.11952e-08
1.01846e-06
2.2642e-08
1.02039e-06
2.55191e-08
1.01931e-06
2.95599e-08
1.02045e-06
3.27335e-08
1.01905e-06
3.82031e-08
1.01881e-06
4.46132e-08
1.01713e-06
4.76536e-08
1.01603e-06
6.15253e-08
1.014e-06
6.13234e-08
1.01354e-06
8.14442e-08
1.01173e-06
8.48631e-08
1.01323e-06
1.05779e-07
1.01424e-06
1.16151e-07
1.01974e-06
1.42959e-07
1.52391e-07
1.02547e-06
1.00019e-06
6.23924e-10
1.00074e-06
1.91747e-09
1.00164e-06
3.17156e-09
1.00276e-06
4.34811e-09
1.00412e-06
5.35325e-09
1.00557e-06
6.55268e-09
1.00717e-06
7.59582e-09
1.00865e-06
8.79504e-09
1.01036e-06
9.65898e-09
1.01182e-06
1.09601e-08
1.01371e-06
1.2331e-08
1.01496e-06
1.40297e-08
1.01688e-06
1.58755e-08
1.0177e-06
1.76245e-08
1.01949e-06
1.93995e-08
1.02002e-06
2.21162e-08
1.02147e-06
2.40646e-08
1.02199e-06
2.90434e-08
1.02292e-06
3.17966e-08
1.02304e-06
3.80905e-08
1.02404e-06
4.36132e-08
1.02297e-06
4.87158e-08
1.02482e-06
5.96823e-08
1.0234e-06
6.2741e-08
1.02571e-06
7.91355e-08
1.0263e-06
8.42686e-08
1.02983e-06
1.02254e-07
1.03294e-06
1.13036e-07
1.04147e-06
1.34433e-07
1.45994e-07
1.04787e-06
1.00018e-06
4.48682e-10
1.00069e-06
1.40214e-09
1.00153e-06
2.33559e-09
1.00261e-06
3.26731e-09
1.00393e-06
4.02589e-09
1.00539e-06
5.09433e-09
1.00702e-06
5.96826e-09
1.0086e-06
7.2182e-09
1.01037e-06
7.88992e-09
1.01198e-06
9.35118e-09
1.01396e-06
1.03512e-08
1.01546e-06
1.2529e-08
1.01754e-06
1.37889e-08
1.01868e-06
1.64831e-08
1.02079e-06
1.7295e-08
1.02168e-06
2.12238e-08
1.02364e-06
2.21065e-08
1.02472e-06
2.79656e-08
1.02626e-06
3.02528e-08
1.02764e-06
3.67138e-08
1.02897e-06
4.22816e-08
1.0302e-06
4.74885e-08
1.03233e-06
5.75455e-08
1.03322e-06
6.18516e-08
1.03706e-06
7.5294e-08
1.03905e-06
8.22805e-08
1.04465e-06
9.66524e-08
1.05017e-06
1.07524e-07
1.05915e-06
1.25445e-07
1.36512e-07
1.06863e-06
1.00017e-06
2.77047e-10
1.00068e-06
8.94214e-10
1.00151e-06
1.50615e-09
1.0026e-06
2.17815e-09
1.00394e-06
2.68647e-09
1.00545e-06
3.58566e-09
1.00713e-06
4.28653e-09
1.00883e-06
5.51691e-09
1.01068e-06
6.04375e-09
1.01248e-06
7.55062e-09
1.01454e-06
8.28476e-09
1.01638e-06
1.06934e-08
1.01855e-06
1.16173e-08
1.02022e-06
1.48131e-08
1.02236e-06
1.51582e-08
1.02398e-06
1.95983e-08
1.02606e-06
2.00268e-08
1.02793e-06
2.60953e-08
1.03007e-06
2.81142e-08
1.03204e-06
3.47413e-08
1.03473e-06
3.95949e-08
1.03648e-06
4.57356e-08
1.0402e-06
5.38297e-08
1.04237e-06
5.96757e-08
1.04722e-06
7.04523e-08
1.05119e-06
7.8308e-08
1.05795e-06
8.98879e-08
1.06462e-06
1.00854e-07
1.0751e-06
1.14971e-07
1.26156e-07
1.08545e-06
1.00018e-06
9.88716e-11
1.00071e-06
3.63132e-10
1.00157e-06
6.43547e-10
1.00271e-06
1.03537e-09
1.00411e-06
1.29053e-09
1.00571e-06
1.98687e-09
1.00748e-06
2.51778e-09
1.00932e-06
3.67412e-09
1.01128e-06
4.0887e-09
1.01328e-06
5.55121e-09
1.01548e-06
6.0844e-09
1.0176e-06
8.56559e-09
1.01995e-06
9.27354e-09
1.02203e-06
1.27346e-08
1.02437e-06
1.28123e-08
1.02653e-06
1.74431e-08
1.02889e-06
1.76676e-08
1.03145e-06
2.35318e-08
1.03396e-06
2.56055e-08
1.03691e-06
3.17924e-08
1.04002e-06
3.64837e-08
1.04309e-06
4.26671e-08
1.04735e-06
4.9566e-08
1.05087e-06
5.61607e-08
1.05662e-06
6.46987e-08
1.0619e-06
7.30311e-08
1.06932e-06
8.24606e-08
1.07768e-06
9.24972e-08
1.08834e-06
1.04316e-07
1.1446e-07
1.10003e-06
1.00019e-06
-9.47554e-11
1.00077e-06
-2.1781e-10
1.00171e-06
-2.8852e-10
1.00294e-06
-1.96032e-10
1.00443e-06
-2.00935e-10
1.00615e-06
2.64674e-10
1.00803e-06
6.35648e-10
1.01003e-06
1.68092e-09
1.01212e-06
2.00027e-09
1.01433e-06
3.3378e-09
1.01668e-06
3.72883e-09
1.01912e-06
6.1348e-09
1.02164e-06
6.75186e-09
1.02413e-06
1.02372e-08
1.02669e-06
1.02616e-08
1.02933e-06
1.47957e-08
1.03202e-06
1.49768e-08
1.03508e-06
2.0477e-08
1.03819e-06
2.24895e-08
1.0416e-06
2.83851e-08
1.04551e-06
3.25789e-08
1.04924e-06
3.89288e-08
1.05418e-06
4.46331e-08
1.0588e-06
5.15367e-08
1.06503e-06
5.84667e-08
1.07143e-06
6.66348e-08
1.07959e-06
7.43036e-08
1.08856e-06
8.35233e-08
1.09983e-06
9.30482e-08
1.02305e-07
1.11198e-06
1.00022e-06
-3.1959e-10
1.0009e-06
-8.89927e-10
1.00196e-06
-1.35402e-09
1.00334e-06
-1.57685e-09
1.00498e-06
-1.84235e-09
1.00686e-06
-1.61356e-09
1.00889e-06
-1.38899e-09
1.01104e-06
-4.75012e-10
1.01328e-06
-2.3248e-10
1.01571e-06
9.04664e-10
1.01823e-06
1.2041e-09
1.02095e-06
3.42159e-09
1.02367e-06
4.03255e-09
1.02655e-06
7.35812e-09
1.02933e-06
7.47811e-09
1.03243e-06
1.16959e-08
1.03541e-06
1.1997e-08
1.03895e-06
1.69339e-08
1.04243e-06
1.90148e-08
1.0464e-06
2.44155e-08
1.05068e-06
2.82949e-08
1.05513e-06
3.4477e-08
1.06046e-06
3.93004e-08
1.06589e-06
4.6109e-08
1.07255e-06
5.18126e-08
1.07979e-06
5.93919e-08
1.08825e-06
6.58436e-08
1.09799e-06
7.37848e-08
1.10937e-06
8.1669e-08
8.96873e-08
1.12198e-06
1.00026e-06
-5.75034e-10
1.00104e-06
-1.67177e-09
1.00226e-06
-2.58026e-09
1.00383e-06
-3.13953e-09
1.00565e-06
-3.66222e-09
1.00771e-06
-3.67316e-09
1.00988e-06
-3.56101e-09
1.01222e-06
-2.81597e-09
1.01466e-06
-2.67494e-09
1.01733e-06
-1.7692e-09
1.02007e-06
-1.52739e-09
1.02305e-06
4.34478e-10
1.02602e-06
1.06536e-09
1.02923e-06
4.15026e-09
1.03231e-06
4.39659e-09
1.03579e-06
8.21118e-09
1.03917e-06
8.62332e-09
1.04308e-06
1.30206e-08
1.047e-06
1.50998e-08
1.05132e-06
2.00899e-08
1.05597e-06
2.36509e-08
1.06088e-06
2.95603e-08
1.06647e-06
3.37149e-08
1.07245e-06
4.01315e-08
1.07936e-06
4.49013e-08
1.08705e-06
5.16963e-08
1.09589e-06
5.7007e-08
1.10584e-06
6.38362e-08
1.11738e-06
7.01241e-08
7.70031e-08
1.13007e-06
1.00037e-06
-9.46637e-10
1.0014e-06
-2.70353e-09
1.00292e-06
-4.09656e-09
1.00475e-06
-4.97204e-09
1.00682e-06
-5.72835e-09
1.00909e-06
-5.94377e-09
1.01143e-06
-5.90448e-09
1.01395e-06
-5.3338e-09
1.01661e-06
-5.33177e-09
1.01951e-06
-4.67305e-09
1.02244e-06
-4.45203e-09
1.02561e-06
-2.7383e-09
1.02879e-06
-2.11531e-09
1.03232e-06
6.21667e-10
1.0357e-06
1.01393e-09
1.03959e-06
4.31661e-09
1.0433e-06
4.92029e-09
1.04751e-06
8.80403e-09
1.05163e-06
1.09818e-08
1.05615e-06
1.55707e-08
1.06088e-06
1.89194e-08
1.06604e-06
2.44016e-08
1.07172e-06
2.80323e-08
1.07803e-06
3.38264e-08
1.08508e-06
3.78483e-08
1.09313e-06
4.36455e-08
1.1021e-06
4.80419e-08
1.11229e-06
5.36485e-08
1.1238e-06
5.86126e-08
6.42545e-08
1.13655e-06
1.00046e-06
-1.40371e-09
1.00184e-06
-4.0855e-09
1.00377e-06
-6.02693e-09
1.00595e-06
-7.15716e-09
1.0083e-06
-8.07114e-09
1.01078e-06
-8.42662e-09
1.0133e-06
-8.42423e-09
1.01603e-06
-8.06716e-09
1.01894e-06
-8.23481e-09
1.02209e-06
-7.83111e-09
1.02522e-06
-7.58194e-09
1.02865e-06
-6.16066e-09
1.03205e-06
-5.5212e-09
1.03587e-06
-3.19869e-09
1.03957e-06
-2.68475e-09
1.04388e-06
1.11712e-11
1.04808e-06
7.19423e-10
1.05266e-06
4.22374e-09
1.0571e-06
6.53731e-09
1.06176e-06
1.0914e-08
1.0665e-06
1.41782e-08
1.07165e-06
1.92508e-08
1.07721e-06
2.2478e-08
1.08349e-06
2.75461e-08
1.09048e-06
3.08571e-08
1.09851e-06
3.56154e-08
1.10749e-06
3.90638e-08
1.11763e-06
4.35049e-08
1.12903e-06
4.72128e-08
5.16737e-08
1.14161e-06
1.00088e-06
-2.28794e-09
1.00288e-06
-6.07884e-09
1.00528e-06
-8.42803e-09
1.00779e-06
-9.66629e-09
1.01039e-06
-1.06737e-08
1.01308e-06
-1.11176e-08
1.01578e-06
-1.11206e-08
1.01873e-06
-1.10217e-08
1.02194e-06
-1.14442e-08
1.0254e-06
-1.12925e-08
1.02873e-06
-1.0908e-08
1.03228e-06
-9.71027e-09
1.03582e-06
-9.06167e-09
1.03991e-06
-7.28914e-09
1.04414e-06
-6.91063e-09
1.049e-06
-4.85663e-09
1.05375e-06
-4.02864e-09
1.0585e-06
-5.28472e-10
1.06278e-06
2.2641e-09
1.06706e-06
6.63145e-09
1.07129e-06
9.94991e-09
1.07605e-06
1.44885e-08
1.08124e-06
1.7283e-08
1.08738e-06
2.14098e-08
1.09428e-06
2.39554e-08
1.10235e-06
2.75451e-08
1.11133e-06
3.00875e-08
1.12148e-06
3.33526e-08
1.13276e-06
3.59331e-08
3.91222e-08
1.14531e-06
1.00186e-06
-4.15017e-09
1.00524e-06
-9.45601e-09
1.00849e-06
-1.16815e-08
1.01138e-06
-1.25572e-08
1.01425e-06
-1.35414e-08
1.01722e-06
-1.40893e-08
1.02016e-06
-1.40546e-08
1.02325e-06
-1.41123e-08
1.02651e-06
-1.47095e-08
1.02996e-06
-1.47349e-08
1.03326e-06
-1.42085e-08
1.03673e-06
-1.31877e-08
1.04007e-06
-1.23986e-08
1.04392e-06
-1.11369e-08
1.04798e-06
-1.09759e-08
1.053e-06
-9.87757e-09
1.05792e-06
-8.94828e-09
1.06297e-06
-5.5791e-09
1.06736e-06
-2.12512e-09
1.07163e-06
2.36445e-09
1.07556e-06
6.01736e-09
1.07999e-06
1.00575e-08
1.08477e-06
1.25112e-08
1.09057e-06
1.56086e-08
1.0972e-06
1.73201e-08
1.10509e-06
1.966e-08
1.11396e-06
2.12146e-08
1.12406e-06
2.32507e-08
1.1352e-06
2.47951e-08
2.68731e-08
1.14745e-06
1.00304e-06
-7.19389e-09
1.00683e-06
-1.32453e-08
1.00969e-06
-1.45427e-08
1.01184e-06
-1.47018e-08
1.01374e-06
-1.54466e-08
1.01539e-06
-1.57359e-08
1.01678e-06
-1.54436e-08
1.01814e-06
-1.54693e-08
1.01936e-06
-1.59286e-08
1.02031e-06
-1.56912e-08
1.02098e-06
-1.4879e-08
1.02171e-06
-1.39137e-08
1.0225e-06
-1.31866e-08
1.02394e-06
-1.2577e-08
1.02568e-06
-1.27193e-08
1.02812e-06
-1.23179e-08
1.03032e-06
-1.11509e-08
1.03295e-06
-8.20302e-09
1.03571e-06
-4.89226e-09
1.0394e-06
-1.32144e-09
1.04377e-06
1.6523e-09
1.04947e-06
4.35157e-09
1.05585e-06
6.12941e-09
1.06354e-06
7.92034e-09
1.07198e-06
8.88023e-09
1.08155e-06
1.00873e-08
1.09193e-06
1.08431e-08
1.10338e-06
1.17918e-08
1.11578e-06
1.2397e-08
1.31853e-08
1.12947e-06
9.92806e-07
9.79561e-07
9.65018e-07
9.50316e-07
9.3487e-07
9.19134e-07
9.0369e-07
8.88221e-07
8.72292e-07
8.56601e-07
8.41722e-07
8.27808e-07
8.14622e-07
8.02045e-07
7.89325e-07
7.77007e-07
7.65857e-07
7.57654e-07
7.52761e-07
7.5144e-07
7.53092e-07
7.57444e-07
7.63573e-07
7.71493e-07
7.80374e-07
7.90461e-07
8.01304e-07
8.13096e-07
8.25493e-07
8.38678e-07
4.04531e-07
-9.80792e-08
4.77031e-07
-7.25001e-08
5.35439e-07
-5.84082e-08
6.20001e-07
-8.45618e-08
6.82055e-07
-6.20544e-08
7.0707e-07
-2.50149e-08
6.87587e-07
1.94828e-08
7.24851e-07
-3.72633e-08
8.34769e-07
-1.09918e-07
-1.23529e-07
9.58298e-07
7.5207e-07
-1.38109e-07
8.10603e-07
-1.31034e-07
8.52124e-07
-9.99287e-08
8.54168e-07
-8.66064e-08
8.7137e-07
-7.92557e-08
9.36232e-07
-8.98774e-08
9.67793e-07
-1.20786e-08
9.53102e-07
-2.25719e-08
9.86662e-07
-1.43478e-07
-2.06956e-07
1.07009e-06
8.6838e-07
-1.34895e-07
8.78778e-07
-1.41432e-07
9.04894e-07
-1.26045e-07
9.16669e-07
-9.83808e-08
8.9478e-07
-5.73674e-08
9.35599e-07
-1.30696e-07
9.91211e-07
-6.76906e-08
1.05317e-06
-8.45274e-08
1.04265e-06
-1.32964e-07
-2.3246e-07
1.06816e-06
9.33023e-07
-1.50621e-07
9.39974e-07
-1.48383e-07
9.35699e-07
-1.2177e-07
9.54283e-07
-1.16965e-07
9.76776e-07
-7.98602e-08
9.76396e-07
-1.30316e-07
1.00231e-06
-9.36019e-08
1.03394e-06
-1.16162e-07
1.05619e-06
-1.55211e-07
-2.41568e-07
1.0653e-06
9.62526e-07
-1.47208e-07
9.66938e-07
-1.52795e-07
9.66961e-07
-1.21792e-07
9.77535e-07
-1.27539e-07
9.89425e-07
-9.17498e-08
9.96437e-07
-1.37329e-07
1.01829e-06
-1.15455e-07
1.04527e-06
-1.43143e-07
1.05352e-06
-1.63463e-07
-2.45999e-07
1.05796e-06
9.97431e-07
-1.48515e-07
9.95436e-07
-1.50801e-07
9.97265e-07
-1.23621e-07
1.00082e-06
-1.31099e-07
1.0171e-06
-1.08021e-07
1.01911e-06
-1.3934e-07
1.03134e-06
-1.27689e-07
1.04183e-06
-1.53636e-07
1.05637e-06
-1.77996e-07
-2.44456e-07
1.05482e-06
1.02164e-06
-1.44687e-07
1.01826e-06
-1.47421e-07
1.01905e-06
-1.24408e-07
1.02099e-06
-1.33045e-07
1.02844e-06
-1.15469e-07
1.0297e-06
-1.40603e-07
1.03826e-06
-1.36248e-07
1.0471e-06
-1.62477e-07
1.05064e-06
-1.81534e-07
-2.3657e-07
1.04276e-06
1.04441e-06
-1.41233e-07
1.03888e-06
-1.41887e-07
1.03883e-06
-1.24363e-07
1.03758e-06
-1.31786e-07
1.04278e-06
-1.2067e-07
1.04111e-06
-1.38933e-07
1.04444e-06
-1.3958e-07
1.04762e-06
-1.65663e-07
1.04779e-06
-1.81699e-07
-2.26385e-07
1.0376e-06
1.06265e-06
-1.3525e-07
1.0561e-06
-1.35332e-07
1.05355e-06
-1.21822e-07
1.04993e-06
-1.28161e-07
1.05082e-06
-1.21557e-07
1.04901e-06
-1.37122e-07
1.04844e-06
-1.39014e-07
1.04497e-06
-1.62194e-07
1.04094e-06
-1.77664e-07
-2.16613e-07
1.03116e-06
1.07835e-06
-1.2815e-07
1.07037e-06
-1.27345e-07
1.06638e-06
-1.17832e-07
1.06126e-06
-1.23044e-07
1.0589e-06
-1.19194e-07
1.05332e-06
-1.31541e-07
1.04992e-06
-1.35614e-07
1.04489e-06
-1.57166e-07
1.03761e-06
-1.70384e-07
-2.02272e-07
1.02327e-06
1.09126e-06
-1.19377e-07
1.08244e-06
-1.18527e-07
1.07597e-06
-1.11367e-07
1.06867e-06
-1.15739e-07
1.06363e-06
-1.14155e-07
1.05719e-06
-1.25097e-07
1.05068e-06
-1.29111e-07
1.04132e-06
-1.47799e-07
1.03138e-06
-1.60449e-07
-1.8796e-07
1.01707e-06
1.10203e-06
-1.09426e-07
1.09191e-06
-1.08406e-07
1.08394e-06
-1.03392e-07
1.07534e-06
-1.0714e-07
1.06784e-06
-1.06658e-07
1.05862e-06
-1.15872e-07
1.05014e-06
-1.20636e-07
1.03931e-06
-1.36971e-07
1.02705e-06
-1.48181e-07
-1.71138e-07
1.01022e-06
1.11075e-06
-9.81919e-08
1.09973e-06
-9.7383e-08
1.08996e-06
-9.363e-08
1.07971e-06
-9.68879e-08
1.07025e-06
-9.71996e-08
1.0598e-06
-1.05419e-07
1.04917e-06
-1.10008e-07
1.03607e-06
-1.23871e-07
1.02198e-06
-1.34092e-07
-1.53557e-07
1.0044e-06
1.11784e-06
-8.59659e-08
1.10572e-06
-8.52659e-08
1.09471e-06
-8.26169e-08
1.08324e-06
-8.54166e-08
1.07219e-06
-8.61518e-08
1.05996e-06
-9.3192e-08
1.04775e-06
-9.77905e-08
1.03337e-06
-1.09493e-07
1.01775e-06
-1.18476e-07
-1.34687e-07
9.98882e-07
1.12338e-06
-7.27995e-08
1.11042e-06
-7.23095e-08
1.09821e-06
-7.04084e-08
1.0856e-06
-7.27977e-08
1.07322e-06
-7.37719e-08
1.05985e-06
-7.98255e-08
1.04618e-06
-8.41226e-08
1.03052e-06
-9.38274e-08
1.0137e-06
-1.01662e-07
-1.15068e-07
9.94084e-07
1.12767e-06
-5.88607e-08
1.11386e-06
-5.85008e-08
1.10075e-06
-5.72981e-08
1.08719e-06
-5.92317e-08
1.07379e-06
-6.03795e-08
1.05932e-06
-6.53491e-08
1.04454e-06
-6.93465e-08
1.02795e-06
-7.72365e-08
1.0102e-06
-8.3908e-08
-9.46964e-08
9.89824e-07
1.13074e-06
-4.42852e-08
1.11626e-06
-4.40223e-08
1.10237e-06
-4.34105e-08
1.08801e-06
-4.4873e-08
1.07376e-06
-4.61277e-08
1.05844e-06
-5.00313e-08
1.04271e-06
-5.36172e-08
1.02524e-06
-5.97606e-08
1.00667e-06
-6.5338e-08
-7.36326e-08
9.85604e-07
1.13203e-06
-2.88654e-08
1.11663e-06
-2.8627e-08
1.10183e-06
-2.86012e-08
1.08654e-06
-2.95893e-08
1.07136e-06
-3.09486e-08
1.05498e-06
-3.36527e-08
1.0381e-06
-3.67304e-08
1.01939e-06
-4.10529e-08
9.99567e-07
-4.55155e-08
-5.11875e-08
9.77122e-07
1.11175e-06
-1.11411e-08
1.09446e-06
-1.13461e-08
1.07762e-06
-1.17575e-08
1.0605e-06
-1.2468e-08
1.04318e-06
-1.36257e-08
1.02472e-06
-1.51989e-08
1.00527e-06
-1.72797e-08
9.83892e-07
-1.96727e-08
9.60884e-07
-2.25071e-08
-2.53293e-08
9.35026e-07
8.27537e-07
8.16191e-07
8.04433e-07
7.91965e-07
7.7834e-07
7.63141e-07
7.45861e-07
7.26188e-07
7.03681e-07
6.78352e-07
1.05066e-08
-1.05066e-08
-5.29002e-08
6.34068e-08
-1.90627e-07
1.37727e-07
-4.42077e-07
2.5145e-07
-7.15931e-07
2.73854e-07
-8.75722e-07
1.59791e-07
-9.14703e-07
3.89815e-08
-8.77588e-07
-3.71159e-08
-7.79028e-07
-9.85595e-08
-6.28394e-07
-1.50634e-07
-4.5471e-07
-1.73684e-07
-2.72258e-07
-1.82452e-07
-9.7468e-08
-1.7479e-07
5.34869e-08
-1.50955e-07
1.79163e-07
-1.25676e-07
2.76102e-07
-9.69398e-08
3.46234e-07
-7.01322e-08
3.93234e-07
-4.69999e-08
4.21871e-07
-2.8637e-08
4.36947e-07
-1.50752e-08
4.42664e-07
-5.71739e-09
4.4229e-07
3.74236e-10
4.38305e-07
3.98425e-09
4.32444e-07
5.86186e-09
4.25945e-07
6.49843e-09
4.19573e-07
6.37177e-09
4.13777e-07
5.79645e-09
4.08725e-07
5.05212e-09
4.04456e-07
4.26866e-09
4.00905e-07
3.55143e-09
3.97985e-07
2.91999e-09
3.95598e-07
2.38713e-09
3.93645e-07
1.95234e-09
3.92074e-07
1.57142e-09
3.90785e-07
1.28935e-09
3.89784e-07
1.0008e-09
3.88956e-07
8.27727e-10
3.88372e-07
5.84163e-10
3.87872e-07
4.99807e-10
2.71559e-10
-3.29392e-09
-7.21272e-09
-1.04307e-07
1.64419e-07
-3.37502e-07
3.70922e-07
-5.9479e-07
5.08739e-07
-7.87087e-07
4.6615e-07
-8.89373e-07
2.62078e-07
-8.87182e-07
3.67904e-08
-8.23428e-07
-1.0087e-07
-7.13942e-07
-2.08045e-07
-5.62913e-07
-3.01663e-07
-3.76516e-07
-3.60081e-07
-1.90218e-07
-3.6875e-07
-1.22155e-08
-3.52793e-07
1.42094e-07
-3.05264e-07
2.69999e-07
-2.5358e-07
3.72005e-07
-1.98946e-07
4.50952e-07
-1.49078e-07
5.11039e-07
-1.07088e-07
5.56545e-07
-7.4143e-08
5.91025e-07
-4.95545e-08
6.17135e-07
-3.18281e-08
6.36712e-07
-1.92019e-08
6.51141e-07
-1.04449e-08
6.61517e-07
-4.51427e-09
6.68686e-07
-6.70747e-10
6.7342e-07
1.63779e-09
6.76409e-07
2.80784e-09
6.78144e-07
3.31673e-09
6.7907e-07
3.34234e-09
6.79468e-07
3.15349e-09
6.79572e-07
2.81573e-09
6.79511e-07
2.44874e-09
6.79377e-07
2.08638e-09
6.79233e-07
1.71534e-09
6.79091e-07
1.43109e-09
6.79002e-07
1.08974e-09
6.78933e-07
8.96545e-10
6.78945e-07
5.72408e-10
6.78975e-07
4.69831e-10
1.55499e-10
-7.23845e-08
6.51718e-08
-2.66424e-07
3.58459e-07
-4.19869e-07
5.24367e-07
-5.30309e-07
6.1918e-07
-6.41163e-07
5.77004e-07
-6.98239e-07
3.19154e-07
-6.85132e-07
2.36832e-08
-6.22293e-07
-1.63709e-07
-5.29155e-07
-3.01183e-07
-3.97963e-07
-4.32855e-07
-2.29993e-07
-5.28051e-07
-4.93251e-08
-5.49418e-07
1.1455e-07
-5.16668e-07
2.55009e-07
-4.45723e-07
3.6555e-07
-3.64121e-07
4.49146e-07
-2.82542e-07
5.09019e-07
-2.08951e-07
5.51546e-07
-1.49615e-07
5.84022e-07
-1.06619e-07
6.11241e-07
-7.67739e-08
6.35101e-07
-5.56876e-08
6.55898e-07
-3.99995e-08
6.7362e-07
-2.81668e-08
6.88239e-07
-1.91331e-08
7.00079e-07
-1.25103e-08
7.09363e-07
-7.64662e-09
7.16495e-07
-4.324e-09
7.21843e-07
-2.03128e-09
7.25826e-07
-6.40597e-10
7.28745e-07
2.33863e-10
7.30905e-07
6.55701e-10
7.32497e-07
8.56937e-10
7.3371e-07
8.73144e-10
7.34639e-07
7.87045e-10
7.35385e-07
6.84464e-10
7.35993e-07
4.82037e-10
7.36517e-07
3.72604e-10
7.36983e-07
1.06097e-10
7.3742e-07
3.26566e-11
-2.78171e-10
-2.06953e-08
8.58671e-08
-9.25572e-08
4.30321e-07
-1.80776e-07
6.12585e-07
-2.97132e-07
7.35536e-07
-3.81027e-07
6.60898e-07
-4.179e-07
3.56027e-07
-4.12081e-07
1.78643e-08
-3.67485e-07
-2.08305e-07
-3.01638e-07
-3.6703e-07
-1.98222e-07
-5.36271e-07
-6.11882e-08
-6.65085e-07
8.55415e-08
-6.96148e-07
2.28986e-07
-6.60113e-07
3.53999e-07
-5.70736e-07
4.5395e-07
-4.64072e-07
5.32883e-07
-3.61475e-07
5.89209e-07
-2.65277e-07
6.21818e-07
-1.82224e-07
6.38118e-07
-1.2292e-07
6.48587e-07
-8.72422e-08
6.59356e-07
-6.64573e-08
6.71588e-07
-5.22309e-08
6.84252e-07
-4.08313e-08
6.96063e-07
-3.09443e-08
7.06328e-07
-2.27747e-08
7.14778e-07
-1.60972e-08
7.21551e-07
-1.10969e-08
7.26854e-07
-7.33462e-09
7.30993e-07
-4.779e-09
7.34176e-07
-2.94922e-09
7.36669e-07
-1.83709e-09
7.38597e-07
-1.07125e-09
7.40135e-07
-6.64538e-10
7.41349e-07
-4.27178e-10
7.42354e-07
-3.21146e-10
7.43176e-07
-3.39244e-10
7.4389e-07
-3.41841e-10
7.44506e-07
-5.10129e-10
7.45077e-07
-5.37641e-10
-8.14015e-10
-7.43869e-08
1.60254e-07
-7.33156e-08
4.29249e-07
-8.34866e-08
6.22756e-07
-8.98308e-08
7.4188e-07
-8.91726e-08
6.6024e-07
-6.2689e-08
3.29543e-07
-3.12224e-08
-1.36023e-08
9.72901e-09
-2.49256e-07
5.56922e-08
-4.12993e-07
1.17142e-07
-5.97721e-07
2.01287e-07
-7.4923e-07
2.91381e-07
-7.86242e-07
3.70225e-07
-7.38956e-07
4.41768e-07
-6.4228e-07
4.971e-07
-5.19404e-07
5.45997e-07
-4.10372e-07
5.98841e-07
-3.18121e-07
6.4549e-07
-2.28873e-07
6.73535e-07
-1.50965e-07
6.84354e-07
-9.80608e-08
6.87536e-07
-6.96398e-08
6.90686e-07
-5.53811e-08
6.96323e-07
-4.64678e-08
7.03713e-07
-3.83342e-08
7.11424e-07
-3.04857e-08
7.18373e-07
-2.30466e-08
7.24169e-07
-1.68926e-08
7.28775e-07
-1.19401e-08
7.32408e-07
-8.41275e-09
7.35244e-07
-5.78494e-09
7.37512e-07
-4.10527e-09
7.39309e-07
-2.86763e-09
7.40781e-07
-2.13686e-09
7.41968e-07
-1.61389e-09
7.4297e-07
-1.32358e-09
7.43798e-07
-1.16763e-09
7.44527e-07
-1.0707e-09
7.45156e-07
-1.13918e-09
7.45743e-07
-1.1243e-09
-1.36403e-09
1.05018e-07
5.52362e-08
8.3551e-08
4.50716e-07
1.55061e-07
5.51246e-07
2.13666e-07
6.83275e-07
2.76727e-07
5.97179e-07
3.33951e-07
2.72319e-07
3.82041e-07
-6.16919e-08
4.34102e-07
-3.01318e-07
4.66863e-07
-4.45755e-07
4.92953e-07
-6.23811e-07
5.37573e-07
-7.93849e-07
5.77496e-07
-8.26165e-07
5.89371e-07
-7.50831e-07
5.96547e-07
-6.49455e-07
5.96142e-07
-5.19e-07
5.80696e-07
-3.94926e-07
5.78102e-07
-3.15526e-07
6.05066e-07
-2.55837e-07
6.46115e-07
-1.92014e-07
6.80078e-07
-1.32024e-07
6.99104e-07
-8.86659e-08
7.0695e-07
-6.32273e-08
7.10384e-07
-4.99012e-08
7.13608e-07
-4.15587e-08
7.17777e-07
-3.46551e-08
7.22412e-07
-2.76815e-08
7.26848e-07
-2.13281e-08
7.30652e-07
-1.57444e-08
7.3377e-07
-1.15303e-08
7.36239e-07
-8.25446e-09
7.38229e-07
-6.09503e-09
7.39815e-07
-4.4538e-09
7.4113e-07
-3.45177e-09
7.42204e-07
-2.68759e-09
7.43125e-07
-2.24514e-09
7.43896e-07
-1.93873e-09
7.44583e-07
-1.75703e-09
7.45181e-07
-1.73724e-09
7.45742e-07
-1.68575e-09
-1.89007e-09
-8.96652e-08
1.44901e-07
9.36893e-08
2.67362e-07
2.65214e-07
3.79721e-07
4.48981e-07
4.99508e-07
5.92647e-07
4.53513e-07
6.71755e-07
1.93211e-07
7.40581e-07
-1.30518e-07
7.85016e-07
-3.45753e-07
7.79996e-07
-4.40734e-07
7.54125e-07
-5.9794e-07
7.40994e-07
-7.80719e-07
7.41134e-07
-8.26305e-07
7.22947e-07
-7.32644e-07
6.96743e-07
-6.23251e-07
6.84498e-07
-5.06755e-07
6.57878e-07
-3.68306e-07
6.12246e-07
-2.69894e-07
5.84796e-07
-2.28387e-07
5.9528e-07
-2.02498e-07
6.30333e-07
-1.67076e-07
6.68225e-07
-1.26558e-07
6.96302e-07
-9.13047e-08
7.12636e-07
-6.6235e-08
7.20811e-07
-4.9733e-08
7.25069e-07
-3.89137e-08
7.28002e-07
-3.06142e-08
7.30635e-07
-2.39611e-08
7.33091e-07
-1.82004e-08
7.35325e-07
-1.37646e-08
7.37242e-07
-1.01713e-08
7.38887e-07
-7.73974e-09
7.40255e-07
-5.82192e-09
7.41428e-07
-4.62486e-09
7.42406e-07
-3.66525e-09
7.43256e-07
-3.09577e-09
7.43973e-07
-2.65521e-09
7.44613e-07
-2.39779e-09
7.45173e-07
-2.29648e-09
7.45699e-07
-2.21188e-09
-2.38101e-09
6.98859e-07
4.0434e-07
5.65322e-07
4.00899e-07
5.45138e-07
3.99905e-07
6.5132e-07
3.93327e-07
7.97765e-07
3.07068e-07
8.99199e-07
9.17769e-08
9.74227e-07
-2.05545e-07
1.02285e-06
-3.94376e-07
1.02551e-06
-4.43396e-07
9.82282e-07
-5.5471e-07
9.09196e-07
-7.07633e-07
8.44755e-07
-7.61864e-07
7.96367e-07
-6.84256e-07
7.45325e-07
-5.72209e-07
7.1397e-07
-4.754e-07
7.07786e-07
-3.62122e-07
6.91682e-07
-2.5379e-07
6.59651e-07
-1.96357e-07
6.37333e-07
-1.8018e-07
6.40969e-07
-1.70711e-07
6.66056e-07
-1.51645e-07
6.99083e-07
-1.24332e-07
7.28745e-07
-9.5897e-08
7.49731e-07
-7.07194e-08
7.62084e-07
-5.12669e-08
7.68385e-07
-3.6915e-08
7.71504e-07
-2.70799e-08
7.73309e-07
-2.00058e-08
7.74717e-07
-1.51725e-08
7.7598e-07
-1.14341e-08
7.77166e-07
-8.92566e-09
7.78223e-07
-6.87855e-09
7.79173e-07
-5.57498e-09
7.79991e-07
-4.4838e-09
7.80727e-07
-3.8314e-09
7.81364e-07
-3.2917e-09
7.81948e-07
-2.98183e-09
7.82465e-07
-2.8141e-09
7.82958e-07
-2.70507e-09
-2.84452e-09
1.0906e-06
3.83824e-07
1.04006e-06
4.51439e-07
9.92102e-07
4.47867e-07
1.03411e-06
3.51317e-07
1.10631e-06
2.34865e-07
1.15682e-06
4.12703e-08
1.19131e-06
-2.40037e-07
1.19265e-06
-3.95712e-07
1.19015e-06
-4.40896e-07
1.16036e-06
-5.24918e-07
1.06652e-06
-6.13797e-07
9.40924e-07
-6.36266e-07
8.42898e-07
-5.8623e-07
7.76036e-07
-5.05347e-07
7.23551e-07
-4.22915e-07
7.00298e-07
-3.38869e-07
7.07176e-07
-2.60668e-07
7.19538e-07
-2.08719e-07
7.20165e-07
-1.80807e-07
7.1075e-07
-1.61296e-07
7.03019e-07
-1.43915e-07
7.05689e-07
-1.27001e-07
7.18661e-07
-1.08869e-07
7.36231e-07
-8.82895e-08
7.52381e-07
-6.74166e-08
7.6396e-07
-4.84938e-08
7.70855e-07
-3.39749e-08
7.74387e-07
-2.35382e-08
7.7613e-07
-1.69153e-08
7.7712e-07
-1.24241e-08
7.77927e-07
-9.7327e-09
7.78697e-07
-7.64828e-09
7.79479e-07
-6.35678e-09
7.80208e-07
-5.21295e-09
7.80888e-07
-4.51182e-09
7.8148e-07
-3.88314e-09
7.82016e-07
-3.51814e-09
7.82484e-07
-3.28242e-09
7.82925e-07
-3.1463e-09
-3.25155e-09
1.12488e-06
3.27098e-07
1.17014e-06
4.06181e-07
1.20904e-06
4.08971e-07
1.26929e-06
2.91061e-07
1.32394e-06
1.80219e-07
1.38348e-06
-1.82685e-08
1.3778e-06
-2.34366e-07
1.29899e-06
-3.16897e-07
1.23701e-06
-3.78916e-07
1.1783e-06
-4.66209e-07
1.0828e-06
-5.18296e-07
9.73306e-07
-5.26773e-07
8.77799e-07
-4.90723e-07
8.10717e-07
-4.38265e-07
7.70417e-07
-3.82614e-07
7.46817e-07
-3.15269e-07
7.40218e-07
-2.54069e-07
7.53976e-07
-2.22478e-07
7.80544e-07
-2.07374e-07
8.01897e-07
-1.82649e-07
8.04328e-07
-1.46346e-07
7.90246e-07
-1.1292e-07
7.72568e-07
-9.11913e-08
7.61539e-07
-7.72602e-08
7.59281e-07
-6.51583e-08
7.62761e-07
-5.19738e-08
7.68029e-07
-3.92428e-08
7.72652e-07
-2.81618e-08
7.75958e-07
-2.02214e-08
7.78035e-07
-1.45006e-08
7.79287e-07
-1.0985e-08
7.80058e-07
-8.41893e-09
7.80609e-07
-6.90784e-09
7.81052e-07
-5.6557e-09
7.81467e-07
-4.92767e-09
7.81853e-07
-4.26879e-09
7.82234e-07
-3.89964e-09
7.82588e-07
-3.63618e-09
7.82936e-07
-3.49451e-09
-3.58315e-09
1.10187e-06
2.90528e-07
1.16621e-06
3.41838e-07
1.24715e-06
3.28035e-07
1.3046e-06
2.33605e-07
1.3571e-06
1.27722e-07
1.39169e-06
-5.28547e-08
1.34483e-06
-1.87509e-07
1.26817e-06
-2.40241e-07
1.20724e-06
-3.17985e-07
1.12605e-06
-3.85015e-07
1.02417e-06
-4.16416e-07
9.50605e-07
-4.53209e-07
9.04827e-07
-4.44946e-07
8.54713e-07
-3.8815e-07
8.16452e-07
-3.44353e-07
8.08451e-07
-3.07268e-07
8.05779e-07
-2.51398e-07
7.87078e-07
-2.03777e-07
7.67778e-07
-1.88074e-07