/*--------------------------------*- C++ -*----------------------------------*\
| =========                 |                                                 |
| \\      /  F ield         | OpenFOAM: The Open Source CFD Toolbox           |
|  \\    /   O peration     | Version:  2112                                  |
|   \\  /    A nd           | Website:  www.openfoam.com                      |
|    \\/     M anipulation  |                                                 |
\*---------------------------------------------------------------------------*/
FoamFile
{
    version     2.0;
    format      ascii;
    arch        "LSB;label=32;scalar=64";
    class       volScalarField;
    location    "0.08";
    object      nut;
}
// * * * * * * * * * * * * * * * * * * * * * * * * * * * * * * * * * * * * * //

dimensions      [0 2 -1 0 0 0 0];

internalField   nonuniform List<scalar> 
1880
(
3.6316e-11
4.84192e-12
1.49619e-12
2.88042e-12
8.10217e-13
5.38285e-13
7.52665e-13
1.14551e-12
7.70888e-13
2.05165e-13
3.9831e-14
4.35789e-15
5.90345e-16
9.65134e-18
4.73572e-17
3.74517e-16
7.31913e-16
3.04747e-15
2.39919e-15
2.26385e-14
8.74289e-15
2.18627e-13
2.03204e-13
2.54816e-12
5.07275e-12
2.66479e-11
3.98365e-11
3.32637e-10
1.12095e-09
9.91602e-09
6.03774e-09
5.3692e-09
1.18394e-08
1.10947e-09
4.28824e-10
3.79203e-10
4.64209e-10
4.16276e-10
3.40989e-10
1.26231e-10
2.83224e-11
2.5158e-12
8.8702e-14
2.2393e-14
5.03378e-13
2.29303e-12
4.69615e-12
1.5056e-11
1.72684e-11
9.01249e-11
5.09135e-11
5.62478e-10
2.10766e-10
2.59702e-09
1.90533e-09
7.65701e-09
1.36418e-08
2.34573e-08
4.28432e-08
7.44046e-08
6.27694e-09
1.09429e-09
1.45874e-08
8.67296e-09
9.88784e-09
6.67861e-09
5.87805e-09
6.52215e-09
5.08018e-09
1.55074e-12
1.44215e-10
4.513e-10
9.25177e-10
1.19198e-09
1.58285e-09
2.12263e-09
2.67217e-09
3.48486e-09
4.10817e-09
5.56744e-09
5.98378e-09
9.0002e-09
8.34251e-09
1.44259e-08
1.22807e-08
2.20274e-08
2.39065e-08
3.35733e-08
4.99491e-08
4.4542e-08
1.35923e-09
2.24228e-10
1.77309e-08
1.23826e-08
7.33713e-09
8.63967e-09
7.63437e-09
2.71303e-09
3.49245e-09
2.21102e-09
2.67663e-09
1.50101e-09
1.71652e-09
1.88498e-09
2.17653e-09
2.61569e-09
3.05239e-09
3.77339e-09
4.26821e-09
5.59564e-09
6.04814e-09
8.49562e-09
8.64792e-09
1.25947e-08
1.23749e-08
1.8497e-08
1.97659e-08
2.77471e-08
3.18086e-08
4.20626e-08
3.6519e-09
2.3463e-10
1.54394e-08
3.11919e-09
9.81853e-10
6.46704e-09
5.25237e-09
5.23621e-09
5.6763e-09
7.48121e-10
1.72712e-09
9.33748e-10
1.40559e-09
1.59098e-09
1.9292e-09
2.40769e-09
2.87059e-09
3.58308e-09
4.11316e-09
5.32672e-09
5.88018e-09
7.93118e-09
8.28956e-09
1.14364e-08
1.21518e-08
1.76131e-08
2.29038e-08
2.82161e-08
4.03256e-08
3.07802e-08
3.04433e-09
2.32749e-12
1.72251e-08
1.20358e-09
8.13434e-10
9.48092e-09
7.79213e-09
3.17704e-09
3.8979e-09
1.37281e-09
1.83798e-09
5.5593e-10
1.06301e-09
1.35577e-09
1.75534e-09
2.25055e-09
2.74207e-09
3.42869e-09
4.02115e-09
5.09827e-09
5.86281e-09
7.46034e-09
8.28514e-09
1.03773e-08
1.15719e-08
1.52503e-08
1.83775e-08
2.11844e-08
2.42762e-08
3.0768e-08
3.7072e-09
3.67369e-11
1.64656e-08
1.59959e-09
2.04825e-09
8.4552e-09
6.70393e-09
2.7701e-09
9.65e-10
9.55642e-10
2.2247e-09
4.2149e-10
9.82792e-10
1.26819e-09
1.67909e-09
2.16126e-09
2.66461e-09
3.29743e-09
3.94516e-09
4.85049e-09
5.77432e-09
6.9564e-09
8.092e-09
9.41948e-09
1.12388e-08
1.40002e-08
1.86955e-08
2.01339e-08
2.63873e-08
2.17414e-08
3.85727e-09
3.29815e-11
1.68012e-08
2.46996e-09
3.65544e-09
9.49729e-09
7.5203e-09
3.69098e-09
2.59198e-09
1.26614e-09
2.28278e-09
6.46769e-10
1.01829e-09
1.29733e-09
1.69301e-09
2.13533e-09
2.63456e-09
3.19907e-09
3.88477e-09
4.62342e-09
5.67073e-09
6.50616e-09
7.87824e-09
8.67053e-09
1.05885e-08
1.25567e-08
1.56487e-08
1.70603e-08
1.8883e-08
2.37949e-08
3.91438e-09
7.45079e-11
1.67656e-08
2.62387e-09
4.13313e-09
9.56485e-09
7.51266e-09
4.80728e-09
4.53946e-09
1.43339e-09
2.20648e-09
9.4318e-10
1.18573e-09
1.41838e-09
1.77498e-09
2.16412e-09
2.64022e-09
3.13528e-09
3.83181e-09
4.42689e-09
5.53196e-09
6.11336e-09
7.60861e-09
8.0416e-09
1.00526e-08
1.15232e-08
1.45476e-08
1.56695e-08
1.79321e-08
1.92372e-08
3.81771e-09
1.71124e-10
1.68221e-08
2.49245e-09
4.21222e-09
9.77385e-09
7.64703e-09
5.23838e-09
5.06502e-09
1.66353e-09
2.29497e-09
1.22437e-09
1.38175e-09
1.57757e-09
1.88974e-09
2.22493e-09
2.66755e-09
3.10156e-09
3.78198e-09
4.27031e-09
5.36696e-09
5.79542e-09
7.30135e-09
7.57622e-09
9.45227e-09
1.06015e-08
1.28024e-08
1.42329e-08
1.52461e-08
1.8614e-08
3.5914e-09
3.46662e-10
1.69047e-08
2.03821e-09
3.83271e-09
9.96036e-09
7.8131e-09
5.34798e-09
5.10899e-09
1.8876e-09
2.44062e-09
1.47702e-09
1.57704e-09
1.73924e-09
2.00947e-09
2.29898e-09
2.70362e-09
3.08646e-09
3.72892e-09
4.14676e-09
5.1893e-09
5.53364e-09
6.97692e-09
7.19979e-09
8.91806e-09
9.87372e-09
1.1661e-08
1.31066e-08
1.39868e-08
1.65441e-08
3.35899e-09
5.20751e-10
1.69419e-08
1.40221e-09
3.14529e-09
9.84879e-09
7.69947e-09
5.56069e-09
5.20813e-09
2.06904e-09
2.55926e-09
1.68884e-09
1.75221e-09
1.88142e-09
2.11523e-09
2.36691e-09
2.73151e-09
3.07665e-09
3.6711e-09
4.05041e-09
5.00859e-09
5.32988e-09
6.65192e-09
6.90925e-09
8.41388e-09
9.27397e-09
1.06169e-08
1.21721e-08
1.27576e-08
1.51592e-08
3.33482e-09
4.77981e-10
1.71297e-08
8.76831e-10
2.40342e-09
1.01093e-08
8.02015e-09
5.20589e-09
4.77367e-09
2.33923e-09
2.78686e-09
1.86459e-09
1.88081e-09
1.98969e-09
2.19325e-09
2.41374e-09
2.74261e-09
3.063e-09
3.60798e-09
3.97011e-09
4.83151e-09
5.1665e-09
6.34121e-09
6.67179e-09
7.96693e-09
8.79029e-09
9.83206e-09
1.13651e-08
1.18672e-08
1.38625e-08
3.59337e-09
4.63246e-10
1.67522e-08
1.27104e-09
2.27082e-09
9.19073e-09
7.44398e-09
5.57455e-09
5.18834e-09
2.37265e-09
2.70665e-09
1.9666e-09
1.97418e-09
2.04608e-09
2.22344e-09
2.42569e-09
2.7277e-09
3.03611e-09
3.5356e-09
3.89854e-09
4.66388e-09
5.03349e-09
6.05943e-09
6.47094e-09
7.57765e-09
8.39396e-09
9.22591e-09
1.06869e-08
1.11474e-08
1.27702e-08
3.63477e-09
1.67889e-10
1.76138e-08
1.26802e-09
2.02095e-09
1.03017e-08
8.48105e-09
4.66636e-09
4.64972e-09
2.62759e-09
3.05627e-09
2.08232e-09
1.98982e-09
2.05703e-09
2.21823e-09
2.40483e-09
2.68771e-09
2.99281e-09
3.45614e-09
3.83019e-09
4.51136e-09
4.9229e-09
5.81339e-09
6.29841e-09
7.24999e-09
8.06321e-09
8.76985e-09
1.01118e-08
1.05764e-08
1.19008e-08
4.1955e-09
6.60543e-10
1.57564e-08
5.98696e-09
6.56237e-09
7.69596e-09
6.65872e-09
5.91225e-09
5.49742e-09
2.594e-09
2.7752e-09
1.97637e-09
1.95029e-09
1.96511e-09
2.12472e-09
2.32706e-09
2.6114e-09
2.92885e-09
3.36802e-09
3.76267e-09
4.37496e-09
4.82996e-09
5.60678e-09
6.15255e-09
6.98061e-09
7.7889e-09
8.42147e-09
9.63739e-09
1.01243e-08
1.12182e-08
1.67676e-09
6.26704e-11
1.81508e-08
6.95263e-09
7.43538e-09
9.48991e-09
8.50726e-09
3.97593e-09
4.16765e-09
2.94356e-09
3.01453e-09
1.94878e-09
1.78701e-09
1.83911e-09
2.0109e-09
2.21859e-09
2.51024e-09
2.84468e-09
3.27173e-09
3.69005e-09
4.25128e-09
4.74825e-09
5.43293e-09
6.03394e-09
6.75776e-09
7.56956e-09
8.15335e-09
9.25462e-09
9.76794e-09
1.07241e-08
6.67902e-09
1.63289e-09
1.48113e-08
9.11898e-09
1.27169e-08
7.4013e-09
6.25874e-09
6.41318e-09
4.59751e-09
1.80143e-10
2.43924e-09
6.1235e-09
1.49743e-09
3.17038e-12
1.014e-10
4.25489e-10
8.73015e-10
1.38554e-09
1.95922e-09
2.54037e-09
3.20665e-09
3.84232e-09
4.57953e-09
5.33619e-09
5.98953e-09
7.04795e-09
7.43138e-09
8.74822e-09
9.14875e-09
1.02334e-08
6.10035e-09
5.09466e-09
1.1682e-08
9.83472e-10
3.783e-10
4.65003e-10
7.09152e-10
7.30859e-10
5.90202e-10
2.37057e-10
6.98094e-11
1.73445e-11
6.2532e-12
2.75987e-12
1.57662e-12
1.15446e-12
1.06284e-12
1.04696e-12
1.13698e-12
1.12733e-12
1.17453e-12
1.05854e-12
8.74953e-13
5.59934e-13
4.61235e-13
5.66011e-14
1.0367e-13
2.73978e-13
1.82128e-12
4.22822e-12
3.56535e-11
4.73753e-12
1.46034e-12
2.7523e-12
7.80324e-13
6.1597e-13
9.08735e-13
1.28852e-12
8.85428e-13
2.62363e-13
6.45735e-14
1.3349e-14
4.31556e-15
1.27808e-15
5.04935e-16
3.10261e-16
2.77964e-16
2.91867e-16
3.49635e-16
4.06813e-16
4.99248e-16
6.06154e-16
6.30534e-16
8.45641e-16
7.36144e-16
1.04382e-15
6.73955e-16
1.15991e-15
2.17025e-16
8.8247e-17
3.73173e-08
1.2594e-09
9.74632e-09
8.44542e-11
1.15335e-08
1.26883e-08
1.23772e-09
6.2403e-09
9.03962e-09
9.48169e-08
9.53331e-08
1.21667e-07
5.59723e-09
8.83226e-08
3.77164e-08
2.07495e-08
4.04909e-07
4.39416e-08
4.09055e-08
2.01912e-06
1.11587e-07
5.06308e-08
4.08322e-08
5.48201e-08
4.64879e-08
1.08868e-07
2.46785e-08
7.00807e-08
4.01997e-08
5.7822e-08
5.62114e-08
5.49237e-08
3.52285e-08
4.46907e-08
5.19176e-08
5.19691e-08
6.67949e-08
2.59206e-07
9.90377e-08
1.15663e-07
6.63982e-08
3.4232e-08
3.43396e-08
4.43235e-08
3.74034e-08
4.28605e-08
5.75169e-08
3.48148e-08
5.94099e-08
9.70364e-08
3.09212e-08
3.788e-08
3.6612e-08
3.25543e-08
4.08968e-08
5.52447e-08
4.06171e-08
6.03851e-08
5.36369e-08
5.85905e-08
3.73934e-08
2.84847e-08
2.838e-08
3.5182e-08
3.08916e-08
3.54096e-08
4.30276e-08
3.18736e-08
3.81644e-08
5.44152e-08
2.38647e-08
2.71826e-08
2.8446e-08
2.83509e-08
3.20034e-08
4.25952e-08
3.09801e-08
3.68849e-08
3.37412e-08
3.47228e-08
2.41017e-08
2.33713e-08
2.43784e-08
2.69193e-08
2.68627e-08
2.87759e-08
3.04053e-08
2.6424e-08
2.89353e-08
3.21038e-08
1.98206e-08
2.08197e-08
2.26238e-08
2.50364e-08
2.47475e-08
2.72818e-08
2.44662e-08
2.5717e-08
2.40893e-08
2.30523e-08
1.8016e-08
1.88686e-08
2.02143e-08
2.25134e-08
2.22678e-08
2.20968e-08
2.23142e-08
2.09431e-08
2.11232e-08
2.08922e-08
1.62288e-08
1.68875e-08
1.84563e-08
2.13376e-08
2.01633e-08
1.97047e-08
1.89015e-08
1.8947e-08
1.79068e-08
1.62033e-08
1.47398e-08
1.55476e-08
1.67748e-08
1.91059e-08
1.82141e-08
1.72455e-08
1.69065e-08
1.61947e-08
1.56227e-08
1.43292e-08
1.35954e-08
1.42563e-08
1.53798e-08
1.73527e-08
1.64635e-08
1.54626e-08
1.47986e-08
1.43459e-08
1.34125e-08
1.17168e-08
1.26267e-08
1.32696e-08
1.41604e-08
1.55551e-08
1.49025e-08
1.39393e-08
1.32808e-08
1.25822e-08
1.16868e-08
1.00944e-08
1.18969e-08
1.24431e-08
1.31506e-08
1.40567e-08
1.3586e-08
1.27359e-08
1.19567e-08
1.12199e-08
1.01734e-08
8.53278e-09
1.13437e-08
1.18087e-08
1.23321e-08
1.29064e-08
1.25555e-08
1.18306e-08
1.09771e-08
1.01973e-08
9.08412e-09
7.52807e-09
1.06645e-08
1.09683e-08
1.1208e-08
1.1367e-08
1.10742e-08
9.99797e-09
9.19391e-09
7.53642e-09
6.54131e-09
4.051e-09
9.55037e-12
2.76536e-11
4.07786e-11
8.33784e-11
1.01432e-10
1.17258e-10
8.99463e-11
9.08661e-11
7.15574e-11
4.94434e-11
3.83956e-16
2.72551e-15
6.88985e-15
1.35087e-14
2.38209e-14
3.41547e-14
2.7229e-14
2.97932e-14
3.19317e-14
1.25983e-14
1.31589e-07
9.54904e-09
4.94474e-09
5.43496e-09
1.34834e-08
4.08265e-08
1.34543e-07
8.054e-08
9.8575e-09
1.05949e-09
1.40661e-10
2.24572e-11
3.96145e-12
7.41878e-13
1.48119e-13
3.22341e-14
7.82028e-15
2.15561e-15
6.80066e-16
2.43675e-16
9.80057e-17
4.35746e-17
2.08685e-17
1.05396e-17
5.5636e-18
3.04053e-18
1.6768e-18
9.37116e-19
5.31763e-19
3.04247e-19
1.88921e-19
9.28382e-20
7.98447e-20
2.1082e-20
3.2271e-20
6.00488e-21
3.03543e-21
1.01586e-20
2.88234e-21
2.7495e-20
6.82952e-08
2.16716e-07
2.05116e-07
4.87303e-08
1.54641e-07
1.83917e-07
1.67372e-07
1.3967e-07
1.10581e-07
8.39529e-08
5.83569e-08
3.50404e-08
1.71398e-08
6.77027e-09
2.28391e-09
7.15328e-10
2.23162e-10
7.25224e-11
2.51184e-11
9.34321e-12
3.73002e-12
1.59047e-12
7.18229e-13
3.40187e-13
1.67781e-13
8.57329e-14
4.51317e-14
2.43016e-14
1.33944e-14
7.40039e-15
4.2948e-15
2.2823e-15
1.48667e-15
6.87748e-16
5.09492e-16
2.43254e-16
1.33467e-16
8.76665e-17
3.48956e-17
1.65186e-17
3.10736e-08
1.98253e-07
1.3211e-07
7.16481e-07
8.48292e-08
2.06182e-07
1.65313e-07
1.28987e-07
1.04078e-07
8.50468e-08
6.66293e-08
5.09125e-08
3.869e-08
2.9577e-08
2.28312e-08
1.77515e-08
1.38042e-08
1.06288e-08
8.00684e-09
5.82752e-09
4.05146e-09
2.66885e-09
1.66082e-09
9.79197e-10
5.51484e-10
3.00054e-10
1.59657e-10
8.38324e-11
4.39799e-11
2.28829e-11
1.2321e-11
6.22586e-12
3.70164e-12
1.69082e-12
1.14228e-12
5.26093e-13
3.02191e-13
1.65582e-13
8.84205e-14
3.68919e-14
6.78975e-08
2.26862e-07
1.24834e-06
3.92432e-06
6.53448e-08
2.38885e-07
2.1845e-07
1.39288e-07
8.64244e-08
6.9692e-08
6.06218e-08
4.92165e-08
3.80041e-08
2.89568e-08
2.21882e-08
1.72166e-08
1.35455e-08
1.07946e-08
8.69797e-09
7.07384e-09
5.79732e-09
4.78118e-09
3.96343e-09
3.29908e-09
2.75493e-09
2.30582e-09
1.93275e-09
1.62017e-09
1.35767e-09
1.13271e-09
9.45979e-10
7.7401e-10
6.48234e-10
5.02785e-10
4.27265e-10
3.08958e-10
2.54199e-10
1.7305e-10
1.41833e-10
7.821e-11
3.22188e-07
2.03068e-09
3.59859e-06
5.44735e-06
3.77538e-06
4.05637e-08
1.94033e-07
1.15682e-07
9.37976e-08
6.30305e-08
4.85191e-08
4.19732e-08
3.44865e-08
2.70756e-08
2.10365e-08
1.64605e-08
1.30344e-08
1.04425e-08
8.44977e-09
6.89364e-09
5.66186e-09
4.67558e-09
3.87846e-09
3.22936e-09
2.69757e-09
2.2595e-09
1.89718e-09
1.59589e-09
1.34542e-09
1.13447e-09
9.61026e-10
8.08595e-10
6.9331e-10
5.75216e-10
5.06202e-10
4.105e-10
3.70221e-10
2.94532e-10
2.75288e-10
2.05626e-10
5.4875e-07
1.60756e-07
3.67876e-06
5.98765e-06
3.97619e-06
2.81052e-10
1.4736e-07
1.30077e-08
3.72279e-10
6.31164e-09
3.14201e-08
3.42236e-08
2.91791e-08
2.39895e-08
1.93172e-08
1.54646e-08
1.24291e-08
1.00619e-08
8.20535e-09
6.73425e-09
5.55654e-09
4.60502e-09
3.83044e-09
3.19609e-09
2.67401e-09
2.24235e-09
1.88429e-09
1.58582e-09
1.33727e-09
1.12745e-09
9.55018e-10
8.02809e-10
6.8814e-10
5.70063e-10
5.00621e-10
4.05874e-10
3.6413e-10
2.89146e-10
2.69157e-10
1.98861e-10
3.87947e-07
2.15363e-07
4.04879e-06
6.40752e-06
2.9071e-06
1.15456e-07
1.38485e-07
1.07337e-07
6.0088e-08
1.61848e-08
1.26169e-08
1.88987e-08
2.43687e-08
2.22566e-08
1.8334e-08
1.48093e-08
1.19693e-08
9.73682e-09
7.97729e-09
6.57554e-09
5.44656e-09
4.52895e-09
3.77777e-09
3.15949e-09
2.64844e-09
2.22436e-09
1.87147e-09
1.57651e-09
1.33044e-09
1.12214e-09
9.51153e-10
7.99134e-10
6.85651e-10
5.67074e-10
4.97831e-10
4.03952e-10
3.60139e-10
2.86869e-10
2.65149e-10
1.95361e-10
2.55216e-10
5.88811e-07
1.48789e-06
5.51323e-06
2.4305e-09
1.82749e-07
1.48336e-07
1.86156e-08
1.59588e-08
6.83628e-08
8.782e-08
5.61348e-08
3.35966e-08
2.28199e-08
1.71981e-08
1.37251e-08
1.13153e-08
9.45953e-09
7.92925e-09
6.64117e-09
5.55884e-09
4.65418e-09
3.90039e-09
3.27288e-09
2.75022e-09
2.31415e-09
1.94983e-09
1.64437e-09
1.38899e-09
1.17213e-09
9.94301e-10
8.34965e-10
7.17223e-10
5.92183e-10
5.19803e-10
4.22231e-10
3.73961e-10
2.99081e-10
2.74355e-10
2.01733e-10
4.01781e-08
2.09562e-07
2.06338e-07
2.13617e-08
2.25479e-07
2.26769e-08
3.5197e-08
9.25049e-08
5.64411e-08
4.18912e-08
4.35547e-08
5.49653e-08
5.15615e-08
3.79611e-08
2.59492e-08
1.79491e-08
1.30264e-08
1.00015e-08
8.01553e-09
6.5836e-09
5.47353e-09
4.57767e-09
3.84055e-09
3.22849e-09
2.71796e-09
2.29088e-09
1.93306e-09
1.63219e-09
1.38008e-09
1.16531e-09
9.89376e-10
8.30484e-10
7.14276e-10
5.8877e-10
5.16789e-10
4.20294e-10
3.69809e-10
2.97073e-10
2.70468e-10
1.98555e-10
8.78221e-08
1.86456e-07
1.51651e-07
2.44648e-07
8.59555e-08
1.17942e-09
1.17588e-07
6.18465e-07
1.6754e-06
1.13045e-06
3.62378e-09
1.8938e-08
3.09891e-08
2.55879e-08
1.89437e-08
1.38116e-08
1.06379e-08
8.7294e-09
7.36614e-09
6.24477e-09
5.28403e-09
4.46268e-09
3.76596e-09
3.17788e-09
2.68268e-09
2.26587e-09
1.91512e-09
1.61914e-09
1.37052e-09
1.15802e-09
9.84122e-10
8.25829e-10
7.11166e-10
5.85336e-10
5.1383e-10
4.18419e-10
3.65964e-10
2.95267e-10
2.66967e-10
1.95734e-10
4.5905e-08
1.94659e-07
1.77601e-07
1.52705e-07
1.04817e-07
1.93066e-07
2.33049e-07
1.30434e-07
7.50997e-08
6.27572e-10
3.58038e-09
1.86714e-08
2.94967e-08
2.88355e-08
2.10727e-08
1.45562e-08
1.08143e-08
8.66239e-09
7.22646e-09
6.10685e-09
5.17018e-09
4.37514e-09
3.70091e-09
3.13036e-09
2.64822e-09
2.24091e-09
1.89701e-09
1.6059e-09
1.36083e-09
1.15071e-09
9.78847e-10
8.21282e-10
7.08102e-10
5.82129e-10
5.11146e-10
4.16739e-10
3.62646e-10
2.9376e-10
2.6402e-10
1.93428e-10
3.10882e-08
1.06419e-07
1.01468e-07
7.75094e-08
1.12841e-07
3.94426e-07
8.35845e-08
4.04277e-07
1.19686e-08
4.38544e-08
8.27301e-08
7.17666e-08
5.1248e-08
3.54436e-08
2.42487e-08
1.65089e-08
1.16449e-08
8.8545e-09
7.17836e-09
6.00041e-09
5.06746e-09
4.29184e-09
3.63751e-09
3.0834e-09
2.61384e-09
2.21586e-09
1.87874e-09
1.59255e-09
1.35105e-09
1.1434e-09
9.73548e-10
8.16881e-10
7.05096e-10
5.79204e-10
5.08776e-10
4.15239e-10
3.59954e-10
2.92545e-10
2.61728e-10
1.91692e-10
3.27269e-08
5.10041e-08
9.12985e-08
5.75695e-08
9.74414e-08
5.16519e-08
9.64221e-08
1.16887e-07
4.60655e-07
3.39003e-08
3.17299e-08
5.24147e-08
4.65719e-08
3.31322e-08
2.02532e-08
1.28096e-08
9.45486e-09
7.80881e-09
6.69254e-09
5.75026e-09
4.91998e-09
4.1955e-09
3.57078e-09
3.03586e-09
2.57956e-09
2.191e-09
1.86064e-09
1.57934e-09
1.34139e-09
1.13625e-09
9.68349e-10
8.12751e-10
7.02232e-10
5.76655e-10
5.06791e-10
4.13948e-10
3.57993e-10
2.91648e-10
2.60175e-10
1.90586e-10
4.25525e-08
6.63051e-08
4.5473e-08
7.85088e-08
4.67264e-08
4.66014e-08
8.43587e-08
5.00287e-08
1.79702e-08
4.526e-08
5.60081e-08
4.83569e-08
3.78959e-08
2.78358e-08
1.95678e-08
1.37461e-08
1.01968e-08
8.1093e-09
6.73413e-09
5.69302e-09
4.84179e-09
4.12442e-09
3.51368e-09
2.99228e-09
2.54707e-09
2.16706e-09
1.84307e-09
1.56648e-09
1.33199e-09
1.12936e-09
9.63337e-10
8.08979e-10
6.99559e-10
5.74533e-10
5.05231e-10
4.12879e-10
3.56822e-10
2.91077e-10
2.59409e-10
1.90134e-10
2.74692e-08
3.0703e-08
3.90286e-08
4.31645e-08
5.73161e-08
6.73416e-08
6.11369e-08
2.02978e-08
4.17478e-08
5.36378e-08
4.73895e-08
3.78933e-08
2.85254e-08
2.01384e-08
1.39747e-08
1.04635e-08
8.61524e-09
7.39506e-09
6.386e-09
5.49833e-09
4.71874e-09
4.04029e-09
3.45377e-09
2.94884e-09
2.51537e-09
2.14387e-09
1.82611e-09
1.55411e-09
1.32297e-09
1.12284e-09
9.5859e-10
8.05624e-10
6.97117e-10
5.72871e-10
5.04117e-10
4.12042e-10
3.56465e-10
2.90833e-10
2.59438e-10
1.90325e-10
3.40816e-08
3.18959e-08
2.82516e-08
3.79629e-08
3.07481e-08
3.16785e-08
4.52722e-08
4.32565e-08
3.1151e-08
2.98639e-08
2.99176e-08
2.58374e-08
2.1216e-08
1.66256e-08
1.29176e-08
1.03774e-08
8.64568e-09
7.34656e-09
6.29045e-09
5.39781e-09
4.63168e-09
3.97086e-09
3.40055e-09
2.90888e-09
2.48568e-09
2.12199e-09
1.81005e-09
1.54241e-09
1.31446e-09
1.11678e-09
9.54171e-10
8.02726e-10
6.94937e-10
5.71679e-10
5.03451e-10
4.11445e-10
3.56902e-10
2.90909e-10
2.60231e-10
1.91118e-10
2.12924e-08
2.11649e-08
2.28268e-08
2.80621e-08
3.34091e-08
3.23955e-08
3.37015e-08
2.68543e-08
2.24889e-08
2.52672e-08
2.48656e-08
2.13279e-08
1.71211e-08
1.35717e-08
1.1113e-08
9.43567e-09
8.1427e-09
7.05033e-09
6.09875e-09
5.26532e-09
4.53653e-09
3.90123e-09
3.34921e-09
2.87097e-09
2.45772e-09
2.10143e-09
1.795e-09
1.53148e-09
1.30654e-09
1.11124e-09
9.50128e-10
8.00301e-10
6.93038e-10
5.70949e-10
5.0322e-10
4.11089e-10
3.58077e-10
2.91289e-10
2.61727e-10
1.92448e-10
2.33027e-08
2.09336e-08
1.95906e-08
2.14733e-08
2.15197e-08
2.10808e-08
2.34438e-08
2.42625e-08
2.20442e-08
1.88878e-08
1.70307e-08
1.52886e-08
1.34883e-08
1.18411e-08
1.03717e-08
9.0609e-09
7.8961e-09
6.86565e-09
5.95651e-09
5.15621e-09
4.45361e-09
3.83877e-09
3.30248e-09
2.8362e-09
2.43197e-09
2.08247e-09
1.78113e-09
1.52145e-09
1.29929e-09
1.10626e-09
9.46499e-10
7.98349e-10
6.91434e-10
5.70652e-10
5.03392e-10
4.10971e-10
3.59902e-10
2.91951e-10
2.63836e-10
1.94239e-10
1.56513e-08
1.49572e-08
1.5349e-08
1.75135e-08
2.08185e-08
1.99533e-08
1.91314e-08
1.85083e-08
1.7356e-08
1.6546e-08
1.55974e-08
1.42504e-08
1.27217e-08
1.12486e-08
9.91359e-09
8.71573e-09
7.64053e-09
6.67713e-09
5.81706e-09
5.05268e-09
4.37658e-09
3.78142e-09
3.25983e-09
2.80454e-09
2.40856e-09
2.06526e-09
1.76855e-09
1.51239e-09
1.29278e-09
1.10188e-09
9.43313e-10
7.96852e-10
6.90127e-10
5.70744e-10
5.03922e-10
4.11083e-10
3.62261e-10
2.92871e-10
2.66453e-10
1.96408e-10
1.5161e-08
1.38023e-08
1.32972e-08
1.34888e-08
1.42865e-08
1.49368e-08
1.57642e-08
1.59612e-08
1.56255e-08
1.49804e-08
1.40548e-08
1.29504e-08
1.17692e-08
1.05947e-08
9.46558e-09
8.40095e-09
7.41365e-09
6.51073e-09
5.6938e-09
4.96092e-09
4.30816e-09
3.73041e-09
3.22185e-09
2.77635e-09
2.38772e-09
2.04995e-09
1.75738e-09
1.50437e-09
1.28706e-09
1.09811e-09
9.40585e-10
7.95776e-10
6.89112e-10
5.71164e-10
5.0475e-10
4.11411e-10
3.65025e-10
2.94023e-10
2.69462e-10
1.98877e-10
1.11447e-08
1.03851e-08
1.03778e-08
1.11264e-08
1.27128e-08
1.3287e-08
1.37107e-08
1.39804e-08
1.38188e-08
1.3457e-08
1.28793e-08
1.20777e-08
1.11255e-08
1.01168e-08
9.10993e-09
8.13699e-09
7.21811e-09
6.36577e-09
5.58614e-09
4.88083e-09
4.24852e-09
3.68599e-09
3.1888e-09
2.75183e-09
2.3696e-09
2.03665e-09
1.7477e-09
1.49746e-09
1.28214e-09
1.09495e-09
9.38316e-10
7.95066e-10
6.88371e-10
5.71832e-10
5.05807e-10
4.11932e-10
3.68044e-10
2.95377e-10
2.72749e-10
2.01578e-10
9.60443e-09
8.84112e-09
8.62182e-09
8.61197e-09
9.69302e-09
1.06893e-08
1.16694e-08
1.23007e-08
1.24401e-08
1.23279e-08
1.19667e-08
1.13604e-08
1.05778e-08
9.70609e-09
8.80511e-09
7.91178e-09
7.0518e-09
6.24273e-09
5.49485e-09
4.81293e-09
4.19794e-09
3.64829e-09
3.16072e-09
2.73095e-09
2.35415e-09
2.02528e-09
1.7394e-09
1.49153e-09
1.27793e-09
1.09228e-09
9.36375e-10
7.94552e-10
6.87764e-10
5.72563e-10
5.06903e-10
4.12508e-10
3.71079e-10
2.96804e-10
2.76115e-10
2.04347e-10
7.55529e-09
6.83269e-09
6.58944e-09
6.80648e-09
8.05239e-09
9.17218e-09
1.02366e-08
1.10361e-08
1.13829e-08
1.14431e-08
1.12422e-08
1.07878e-08
1.01383e-08
9.37362e-09
8.55506e-09
7.7242e-09
6.91107e-09
6.13683e-09
5.41478e-09
4.75204e-09
4.15135e-09
3.61243e-09
3.13294e-09
2.70929e-09
2.33711e-09
2.01179e-09
1.7286e-09
1.48285e-09
1.27078e-09
1.08659e-09
9.31284e-10
7.9099e-10
6.83834e-10
5.70351e-10
5.04681e-10
4.09979e-10
3.71269e-10
2.9495e-10
2.76804e-10
2.03408e-10
6.27689e-09
5.4771e-09
5.09469e-09
5.42681e-09
6.75325e-09
8.0188e-09
9.18211e-09
1.00968e-08
1.05828e-08
1.07457e-08
1.06317e-08
1.02624e-08
9.69334e-09
8.99772e-09
8.23573e-09
7.45038e-09
6.67336e-09
5.92742e-09
5.22731e-09
4.5814e-09
3.99343e-09
3.46387e-09
2.99093e-09
2.57143e-09
2.20128e-09
1.8761e-09
1.59124e-09
1.34228e-09
1.12488e-09
9.35015e-10
7.69453e-10
6.23754e-10
4.99199e-10
3.82646e-10
3.00725e-10
1.94378e-10
1.62151e-10
7.38016e-11
6.91235e-11
1.63365e-11
2.96172e-09
2.21648e-09
1.75864e-09
1.75036e-09
2.38176e-09
3.32793e-09
4.21554e-09
4.84129e-09
5.11021e-09
5.08592e-09
4.81603e-09
4.34716e-09
3.75102e-09
3.10125e-09
2.45345e-09
1.84752e-09
1.31353e-09
8.72154e-10
5.33156e-10
2.94574e-10
1.43534e-10
5.95575e-11
1.98803e-11
4.77433e-12
6.17371e-13
1.32537e-14
2.85426e-14
2.21359e-13
5.05555e-13
6.95372e-13
8.07757e-13
6.83053e-13
6.92429e-13
4.22138e-13
3.95369e-13
2.50437e-13
1.44357e-13
1.1571e-13
5.77269e-14
3.23491e-14
2.76573e-11
1.56374e-11
7.76421e-12
4.50799e-12
4.37102e-12
3.92502e-12
2.09902e-12
8.77567e-13
3.50499e-13
1.12616e-13
1.70877e-14
2.51754e-16
4.75823e-15
2.97363e-14
7.04565e-14
1.10754e-13
1.38106e-13
1.48224e-13
1.43175e-13
1.27854e-13
1.07414e-13
8.59394e-14
6.60558e-14
4.90927e-14
3.54597e-14
2.4988e-14
1.72486e-14
1.1675e-14
7.8172e-15
5.08119e-15
3.40784e-15
2.02471e-15
1.48897e-15
7.33756e-16
5.93254e-16
3.03616e-16
1.66609e-16
1.18579e-16
5.03703e-17
2.48081e-17
7.28817e-15
2.38846e-15
3.69528e-17
4.71329e-16
1.11772e-16
3.34381e-16
4.74539e-16
6.68059e-16
7.02704e-16
6.4577e-16
6.28132e-16
6.08258e-16
5.51462e-16
4.58553e-16
3.53738e-16
2.5753e-16
1.79554e-16
1.2131e-16
8.01374e-17
5.21017e-17
3.34982e-17
2.13634e-17
1.35379e-17
8.52539e-18
5.33889e-18
3.31832e-18
2.05532e-18
1.26066e-18
7.77729e-19
4.66784e-19
2.95581e-19
1.59293e-19
1.21745e-19
4.36945e-20
4.97251e-20
1.42472e-20
6.61233e-21
1.27117e-20
2.22816e-21
2.37599e-20
)
;

boundaryField
{
    inlet
    {
        type            calculated;
        value           nonuniform List<scalar> 
20
(
1.28497e-34
6.04515e-33
2.108e-33
1.04439e-32
1.25459e-32
1.40089e-32
1.43338e-32
1.45177e-32
1.45924e-32
1.4624e-32
1.46312e-32
1.46054e-32
1.45691e-32
1.44036e-32
1.4135e-32
1.27235e-32
1.059e-32
2.1321e-33
6.00138e-33
1.28435e-34
)
;
    }
    outlet
    {
        type            calculated;
        value           nonuniform List<scalar> 
27
(
3.59904e-34
2.17328e-34
1.12012e-34
4.69741e-35
1.39998e-35
1.90345e-36
7.17987e-40
1.16978e-36
1.0715e-35
3.82557e-35
9.35348e-35
1.83646e-34
3.08014e-34
4.54821e-34
6.04148e-34
7.21295e-34
8.79734e-34
5.14047e-36
2.19733e-38
1.25428e-40
1.0928e-40
1.8052e-38
3.66403e-36
6.08957e-34
8.27047e-34
6.73727e-34
5.19603e-34
)
;
    }
    lowerWall
    {
        type            fixedValue;
        value           uniform 0;
    }
    upperWall
    {
        type            fixedValue;
        value           uniform 0;
    }
    defaultFaces
    {
        type            empty;
    }
}


// ************************************************************************* //
