/*--------------------------------*- C++ -*----------------------------------*\
| =========                 |                                                 |
| \\      /  F ield         | OpenFOAM: The Open Source CFD Toolbox           |
|  \\    /   O peration     | Version:  2112                                  |
|   \\  /    A nd           | Website:  www.openfoam.com                      |
|    \\/     M anipulation  |                                                 |
\*---------------------------------------------------------------------------*/
FoamFile
{
    version     2.0;
    format      ascii;
    arch        "LSB;label=32;scalar=64";
    class       volScalarField;
    location    "0.08";
    object      p;
}
// * * * * * * * * * * * * * * * * * * * * * * * * * * * * * * * * * * * * * //

dimensions      [0 2 -2 0 0 0 0];

internalField   nonuniform List<scalar> 
1880
(
0.00386238
0.00371507
0.00360489
0.00357391
0.00356815
0.00353027
0.0034822
0.00346134
0.00345547
0.00344611
0.0034342
0.0034273
0.00342619
0.00342847
0.00343363
0.00344279
0.00345689
0.00347717
0.00350415
0.00354097
0.00358633
0.00364936
0.00372072
0.00382595
0.00393538
0.00411126
0.00429293
0.00459338
0.00492133
0.00542023
0.00368345
0.00364528
0.00358005
0.00355004
0.00355204
0.00352123
0.00347405
0.00345457
0.0034524
0.00344475
0.00343219
0.0034246
0.00342325
0.00342507
0.00342937
0.00343751
0.00345028
0.00346913
0.00349395
0.00352841
0.00357018
0.00362828
0.00369395
0.00378681
0.0038873
0.00403089
0.00418704
0.00439244
0.00460202
0.00478561
0.00365112
0.00362717
0.00357066
0.00354251
0.00354698
0.00351935
0.00347455
0.00345671
0.00345501
0.00344615
0.00343143
0.00342176
0.00341862
0.00341869
0.00342109
0.00342705
0.00343735
0.003453
0.0034742
0.0035031
0.00353928
0.00358656
0.00364339
0.00371466
0.00379953
0.00389788
0.00401469
0.00413
0.00426098
0.00432428
0.00359393
0.00358254
0.00354008
0.00351947
0.00352873
0.00350549
0.00346396
0.003448
0.00344768
0.00343954
0.00342467
0.00341417
0.00340979
0.00340825
0.00340855
0.00341193
0.00341895
0.0034307
0.00344665
0.00346935
0.00349687
0.00353349
0.00357603
0.00362737
0.00368779
0.00374969
0.00382063
0.00387796
0.00392241
0.00390122
0.00356627
0.00356017
0.0035238
0.00350722
0.00351902
0.00349782
0.00345783
0.00344263
0.00344237
0.00343361
0.00341749
0.00340535
0.00339907
0.0033953
0.00339291
0.00339307
0.00339613
0.00340306
0.003413
0.00342813
0.00344624
0.00347032
0.00349814
0.00352774
0.0035648
0.00358974
0.00362741
0.00362775
0.00362656
0.00355559
0.00354048
0.00353621
0.00350327
0.00349009
0.00350439
0.00348525
0.00344698
0.00343285
0.00343297
0.00342406
0.00340723
0.0033938
0.0033857
0.00337961
0.00337434
0.00337096
0.00336965
0.00337129
0.0033746
0.00338172
0.00338969
0.00340145
0.00341375
0.0034244
0.00343801
0.00343617
0.00343785
0.0034087
0.00335528
0.00326547
0.00352147
0.00351868
0.00348806
0.00347723
0.00349321
0.00347524
0.00343774
0.0034239
0.00342378
0.00341415
0.00339615
0.00338106
0.00337086
0.00336217
0.00335373
0.00334651
0.00334057
0.00333661
0.00333313
0.00333203
0.00333005
0.00332976
0.00332767
0.00332096
0.0033147
0.00328886
0.0032656
0.00320722
0.00312868
0.00301837
0.00350659
0.00350444
0.00347495
0.00346533
0.00348224
0.00346496
0.00342789
0.00341411
0.0034136
0.00340315
0.0033839
0.00336711
0.00335471
0.00334334
0.00333164
0.00332049
0.00330983
0.00330023
0.00329004
0.00328093
0.00326947
0.00325802
0.00324279
0.00322123
0.00319738
0.00315373
0.00310769
0.00303267
0.00293042
0.00280935
0.00349528
0.00349343
0.00346451
0.00345556
0.00347293
0.00345587
0.00341876
0.00340464
0.00340343
0.00339193
0.00337123
0.00335259
0.00333792
0.00332379
0.00330878
0.00329369
0.00327839
0.00326329
0.00324667
0.00322999
0.0032098
0.00318824
0.00316145
0.00312718
0.00308878
0.00303048
0.00296799
0.00287841
0.00276356
0.00263351
0.00348728
0.00348551
0.00345671
0.00344787
0.00346519
0.00344792
0.00341037
0.00339558
0.00339343
0.0033807
0.00335844
0.00333788
0.00332091
0.00330401
0.00328575
0.00326683
0.00324709
0.00322676
0.00320416
0.00318049
0.00315248
0.00312196
0.00308519
0.00304035
0.00298981
0.00292055
0.00284478
0.00274579
0.0026219
0.00248617
0.00348251
0.00348061
0.00345157
0.00344238
0.00345923
0.00344134
0.003403
0.00338722
0.00338391
0.0033698
0.00334589
0.00332336
0.00330409
0.00328451
0.00326313
0.00324058
0.00321666
0.00319147
0.00316344
0.00313348
0.00309859
0.00306027
0.00301505
0.00296149
0.00290119
0.0028235
0.00273802
0.00263204
0.00250337
0.0023642
0.00348102
0.00347884
0.00344924
0.00343925
0.00345521
0.00343632
0.00339686
0.00337982
0.00337514
0.00335953
0.00333389
0.00330938
0.00328788
0.00326574
0.00324142
0.00321548
0.00318773
0.00315815
0.00312528
0.00308974
0.0030489
0.00300392
0.00295168
0.00289108
0.00282296
0.0027391
0.00264647
0.00253589
0.00240477
0.00226357
0.00348313
0.00348039
0.00344972
0.00343832
0.00345289
0.00343265
0.0033917
0.00337311
0.00336693
0.00334982
0.00332251
0.00329613
0.00327254
0.00324802
0.00322101
0.00319201
0.00316084
0.00312735
0.00309023
0.00304987
0.00300398
0.00295341
0.00289543
0.0028292
0.00275499
0.00266667
0.00256899
0.00245547
0.00232358
0.00218176
0.00348952
0.00348607
0.00345403
0.00344086
0.0034537
0.00343172
0.00338894
0.00336859
0.00336042
0.00334149
0.00331236
0.0032841
0.00325849
0.00323177
0.00320233
0.00317059
0.0031364
0.00309953
0.00305877
0.0030143
0.00296421
0.00290902
0.00284643
0.00277578
0.00269693
0.00260546
0.00250435
0.00238918
0.00225764
0.00211605
0.00350029
0.00349507
0.00346019
0.00344404
0.00345435
0.0034301
0.00338517
0.00336289
0.00335337
0.00333265
0.00330248
0.00327278
0.00324556
0.00321701
0.00318552
0.00315148
0.00311475
0.00307501
0.0030312
0.00298333
0.00292981
0.0028709
0.00280468
0.00273063
0.00264832
0.00255469
0.00245135
0.00233547
0.00220496
0.00206438
0.00351977
0.00351262
0.00347402
0.00345395
0.00346109
0.00343394
0.00338625
0.00336168
0.00335024
0.0033282
0.00329535
0.00326356
0.00323461
0.00320436
0.00317107
0.00313505
0.0030962
0.00305409
0.00300781
0.00295719
0.00290094
0.0028391
0.0027701
0.0026935
0.00260868
0.00251361
0.00240894
0.00229295
0.00216387
0.00202473
0.00354087
0.00352829
0.0034833
0.00345873
0.00346268
0.00343266
0.00338233
0.00335562
0.00334249
0.00331925
0.00328612
0.0032541
0.00322451
0.00319326
0.00315875
0.00312131
0.00308086
0.00303694
0.00298874
0.002936
0.00287767
0.0028136
0.00274253
0.0026641
0.00257752
0.00248158
0.00237618
0.00226044
0.00213289
0.00199539
0.00359425
0.00356893
0.00350957
0.00347704
0.00347569
0.00344065
0.00338633
0.00335693
0.00334143
0.00331609
0.00328136
0.00324819
0.00321729
0.00318492
0.00314934
0.00311077
0.00306908
0.0030238
0.00297418
0.00291989
0.00286003
0.00279438
0.00272183
0.00264216
0.0025544
0.00245804
0.00235231
0.00223707
0.00211092
0.00197493
0.00362282
0.00358324
0.003515
0.00348025
0.00347594
0.00343712
0.00337969
0.00334791
0.00333113
0.00330615
0.00327274
0.00324041
0.00321019
0.00317792
0.00314211
0.00310307
0.00306074
0.00301464
0.00296414
0.00290886
0.00284802
0.00278139
0.00270789
0.00262751
0.00253895
0.00244248
0.00233666
0.00222205
0.00209732
0.00196263
0.00380036
0.0036515
0.00353809
0.00350216
0.00348979
0.00344351
0.00338491
0.00335156
0.00333089
0.00330393
0.00327073
0.00323848
0.00320759
0.00317476
0.00313867
0.00309935
0.00305665
0.00301012
0.00295918
0.00290342
0.00284214
0.00277502
0.00270114
0.00262037
0.00253158
0.00243503
0.00232936
0.0022153
0.0020919
0.0019594
0.00579407
0.00457463
0.00395838
0.00338618
0.00228448
0.00175686
0.000375145
-0.000815971
-0.00140603
-0.00756075
0.00488724
0.00382464
0.00338853
0.00271436
0.00177251
0.00133733
-0.000165468
-0.00133348
-0.00280714
-0.00537017
0.00435993
0.00371203
0.00320702
0.00268169
0.00188728
0.0011952
1.95571e-05
-0.00111433
-0.00235359
-0.00392851
0.00382181
0.00327136
0.00273073
0.00219205
0.00146398
0.000749625
-0.000164147
-0.00117214
-0.0019582
-0.00281628
0.00345526
0.00303435
0.00258832
0.00208504
0.00147414
0.000804327
-1.78138e-07
-0.000825577
-0.00148732
-0.00227496
0.00311857
0.0027612
0.00227523
0.00179861
0.00125556
0.000593289
-4.61748e-05
-0.000768286
-0.0013048
-0.00184332
0.0028691
0.00254441
0.00213896
0.00170744
0.001218
0.0006583
8.04512e-05
-0.000508228
-0.00095741
-0.00141313
0.00264305
0.00235404
0.00196884
0.00155142
0.00112166
0.000606936
0.000107199
-0.000390863
-0.000777618
-0.0011318
0.00246874
0.00220324
0.00185871
0.00149196
0.00109168
0.000649084
0.00021931
-0.000195809
-0.000534535
-0.000830695
0.00231893
0.00207304
0.00176449
0.0014149
0.00105385
0.000663164
0.000285564
-7.50248e-05
-0.000373913
-0.000624872
0.00219876
0.00197373
0.00169203
0.00137849
0.00104582
0.000703628
0.000376585
6.57173e-05
-0.000201984
-0.000420876
0.00210047
0.00189029
0.00163593
0.00134533
0.0010409
0.000736419
0.000447035
0.000169383
-7.19296e-05
-0.000269743
0.00202138
0.0018258
0.00159212
0.00132754
0.00104907
0.000776405
0.00051776
0.000270203
4.89613e-05
-0.000131836
0.00195868
0.00177385
0.00155881
0.0013156
0.00106047
0.000812387
0.000577139
0.000350717
0.000146807
-2.30349e-05
0.00190986
0.00173392
0.00153373
0.00130998
0.00107563
0.000847584
0.000630518
0.000421897
0.000230894
6.99855e-05
0.00187304
0.00170386
0.00151567
0.0013082
0.00109149
0.000879104
0.000675841
0.000480138
0.000299782
0.000144771
0.00184638
0.00168256
0.00150363
0.00130931
0.00110684
0.000906599
0.000713738
0.000528097
0.000355654
0.000205151
0.00182855
0.00166907
0.0014974
0.00131343
0.00112195
0.000930486
0.000745248
0.000566637
0.00039999
0.000252251
0.00181789
0.00166162
0.00149517
0.00131839
0.00113487
0.00094955
0.000769249
0.000595638
0.000432547
0.000285948
0.00181778
0.00166514
0.00150224
0.00132936
0.00114953
0.000967573
0.000789587
0.000618406
0.000457389
0.000310714
-0.00618775
-0.00664297
-0.00810072
-0.00793166
-0.00524996
-0.00253022
-0.0004595
0.000518156
0.00108794
0.00130511
0.00135324
0.00131665
0.00124121
0.00115119
0.00105906
0.000970731
0.000888683
0.000813622
0.000745398
0.000683464
0.000627131
0.000575698
0.000528504
0.000484962
0.000444551
0.000406817
0.000371364
0.000337854
0.000306
0.000275556
0.000246314
0.000218079
0.000190706
0.000164023
0.000137929
0.000112293
8.70011e-05
6.20015e-05
3.71453e-05
1.23946e-05
-0.00683089
-0.00685854
-0.00901717
-0.00900294
-0.00607028
-0.00290215
-0.000696358
0.000381101
0.00097556
0.00122185
0.00129282
0.00127248
0.00120814
0.00112588
0.00103934
0.000955163
0.00087625
0.000803601
0.000737257
0.000676806
0.000621653
0.000571163
0.000524732
0.000481814
0.000441915
0.000404603
0.000369501
0.000336284
0.000304676
0.000274439
0.000245373
0.00021729
0.000190046
0.000163478
0.000137478
0.000111933
8.67171e-05
6.17912e-05
3.70134e-05
1.23427e-05
-0.00665783
-0.00773679
-0.0112223
-0.0119044
-0.00817056
-0.00381546
-0.00117915
6.11468e-05
0.000731862
0.00104414
0.00116628
0.00118215
0.00114245
0.00107705
0.0010023
0.00092656
0.000853841
0.000785823
0.000722993
0.00066525
0.000612212
0.000563393
0.0005183
0.000476463
0.000437446
0.000400858
0.000366353
0.000333635
0.000302445
0.000272561
0.000243794
0.000215969
0.000188942
0.000162568
0.000136733
0.000111337
8.62615e-05
6.14598e-05
3.68122e-05
1.227e-05
-0.00819432
-0.00871917
-0.0146837
-0.0162989
-0.0116045
-0.00539683
-0.00200297
-0.000449979
0.000369568
0.000788767
0.000989975
0.00106082
0.00105693
0.00101471
0.00095542
0.000890413
0.000825434
0.000763173
0.000704728
0.000650383
0.000600018
0.00055333
0.00050995
0.000469502
0.000431622
0.00039597
0.000362241
0.000330172
0.000299527
0.000270105
0.000241729
0.00021424
0.000187501
0.00016138
0.000135766
0.00011057
8.56784e-05
6.10456e-05
3.6566e-05
1.21884e-05
-0.00721134
-0.00941115
-0.0182753
-0.022162
-0.0151353
-0.00747924
-0.00312016
-0.00116608
-0.000104691
0.000475141
0.000779314
0.000916444
0.000954796
0.000939851
0.0008988
0.000846557
0.000790859
0.000735543
0.000682405
0.000632187
0.000585077
0.000540985
0.000499698
0.00046095
0.000424461
0.000389957
0.000357181
0.000325908
0.000295933
0.000267079
0.000239185
0.00021211
0.000185728
0.000159919
0.000134581
0.000109631
8.49676e-05
6.05452e-05
3.62686e-05
1.20886e-05
-0.00778629
-0.00869359
-0.0193791
-0.0241685
-0.0162028
-0.00841956
-0.00383911
-0.00179265
-0.000582427
0.000161963
0.000577953
0.00077909
0.000855247
0.000864357
0.000839745
0.000799463
0.000752856
0.000704636
0.000657121
0.000611394
0.000567895
0.000526726
0.000487816
0.000451012
0.000416123
0.000382944
0.000351273
0.000320924
0.000291729
0.000263535
0.000236205
0.000209614
0.00018365
0.000158208
0.000133194
0.000108536
8.41389e-05
5.99639e-05
3.59239e-05
1.19736e-05
-0.00768157
-0.00708994
-0.0191015
-0.0234602
-0.0153741
-0.00795403
-0.00381307
-0.00185915
-0.000704655
3.2434e-05
0.000456146
0.000669212
0.000760755
0.000786068
0.00077606
0.000747921
0.000711034
0.000670518
0.00062913
0.000588311
0.000548766
0.000510804
0.000474513
0.00043986
0.000406746
0.000375043
0.000344605
0.000315293
0.000286973
0.000259523
0.000232829
0.000206784
0.000181295
0.000156268
0.000131622
0.000107295
8.32012e-05
5.93075e-05
3.55354e-05
1.18441e-05
-0.00650688
-0.00354845
-0.0158021
-0.0197809
-0.0128422
-0.00686839
-0.00357279
-0.00170065
-0.00058662
9.36668e-05
0.000485291
0.000656259
0.000720765
0.000736462
0.000725833
0.000701381
0.000669998
0.000635322
0.000599366
0.000563292
0.000527776
0.00049319
0.000459713
0.000427401
0.000396239
0.000366167
0.0003371
0.000308943
0.000281603
0.000254987
0.000229008
0.00020358
0.000178626
0.00015407
0.000129842
0.00010589
8.21399e-05
5.8565e-05
3.50963e-05
1.16977e-05
-0.00582576
-0.0050296
-0.0111453
-0.0132921
-0.00884488
-0.00529543
-0.00317514
-0.00184556
-0.000776357
0.000105849
0.000467553
0.000603795
0.000647054
0.000658669
0.000656296
0.000643111
0.000621991
0.000595716
0.000566516
0.000535918
0.000504875
0.000473966
0.000443528
0.000413743
0.000384691
0.000356389
0.000328813
0.000301919
0.000275652
0.000249954
0.000224763
0.000200017
0.000175657
0.000151623
0.000127859
0.000104326
8.09584e-05
5.77385e-05
3.46076e-05
1.15348e-05
-0.00525164
-0.00442271
-0.00665003
-0.00826139
-0.00653143
-0.0041826
-0.00246973
-0.00182577
-0.00149565
-0.00082244
-6.38873e-05
0.000399966
0.000583169
0.000628136
0.00062397
0.000605779
0.000583718
0.000560001
0.000534892
0.000508611
0.000481558
0.000454145
0.000426704
0.000399464
0.000372567
0.000346088
0.000320059
0.000294482
0.00026934
0.000244607
0.000220248
0.000196223
0.000172493
0.000149014
0.000125745
0.000102657
7.96975e-05
5.68563e-05
3.40859e-05
1.1361e-05
-0.00357475
-0.0034916
-0.00474891
-0.00548092
-0.00450944
-0.00278874
-0.00157358
-0.00154234
-0.00143144
-0.000728641
-6.58483e-05
0.000268676
0.000408777
0.000474023
0.000508807
0.000524424
0.000525312
0.000515776
0.000499674
0.000479663
0.000457355
0.000433726
0.000409394
0.000384751
0.000360043
0.00033542
0.000310971
0.000286743
0.000262758
0.000239022
0.000215525
0.00019225
0.000169177
0.000146277
0.000123526
0.000100905
7.83733e-05
5.59297e-05
3.3538e-05
1.11786e-05
-0.00281316
-0.00277825
-0.00342437
-0.00392267
-0.00351392
-0.00261191
-0.00190102
-0.00141364
-0.00081936
-0.000107804
0.000300047
0.000440854
0.000488557
0.000505338
0.000507283
0.000502168
0.000493799
0.000482872
0.000469089
0.000452565
0.000433829
0.00041348
0.000392035
0.00036989
0.000347329
0.000324548
0.000301679
0.000278811
0.000255998
0.000233275
0.000210658
0.00018815
0.000165752
0.000143449
0.000121231
9.90915e-05
7.70024e-05
5.49701e-05
3.29706e-05
1.09896e-05
-0.00224525
-0.00231951
-0.00263003
-0.00283926
-0.00258227
-0.00194449
-0.00135176
-0.00104181
-0.000797292
-0.000537669
-0.000225894
3.1011e-05
0.000203666
0.000314386
0.000382535
0.00042061
0.000437654
0.000440883
0.000435487
0.000424628
0.00041017
0.000393277
0.000374724
0.000355039
0.000334585
0.000313616
0.00029231
0.000270792
0.000249149
0.000227442
0.00020571
0.000183977
0.000162262
0.000140564
0.000118889
9.72397e-05
7.56018e-05
5.39896e-05
3.23907e-05
1.07965e-05
-0.00169492
-0.00177653
-0.00195548
-0.00214259
-0.0020272
-0.00172876
-0.00136338
-0.00091979
-0.00054237
-0.000184312
6.92485e-05
0.00021788
0.000304034
0.000354135
0.000382663
0.00039897
0.000407652
0.000410012
0.000406801
0.00039903
0.000387725
0.000373759
0.000357822
0.000340437
0.000321991
0.000302771
0.000282985
0.000262789
0.000242298
0.000221595
0.000200744
0.000179783
0.00015875
0.000137659
0.000116528
9.53722e-05
7.41886e-05
5.3e-05
3.18053e-05
1.06015e-05
-0.00135369
-0.0014699
-0.0015729
-0.00165979
-0.0015958
-0.00132256
-0.000956669
-0.00068991
-0.000496756
-0.000318246
-0.000132717
2.68493e-05
0.000150201
0.000241364
0.00030431
0.000343718
0.000365712
0.000375835
0.00037782
0.000374026
0.000366019
0.000354894
0.000341438
0.000326227
0.000309688
0.000292138
0.000273814
0.000254898
0.000235528
0.000215807
0.000195819
0.000175619
0.000155259
0.000134768
0.000114177
9.35113e-05
7.27799e-05
5.20132e-05
3.12214e-05
1.0407e-05
-0.00100425
-0.00109793
-0.001186
-0.00126803
-0.00124285
-0.00110805
-0.000907095
-0.000666998
-0.000436209
-0.000220654
-3.89329e-05
9.12699e-05
0.000180436
0.000242314
0.000286075
0.000316704
0.000336689
0.000347951
0.000352255
0.000351104
0.000345709
0.000337026
0.000325794
0.000312578
0.000297815
0.000281837
0.000264902
0.00024721
0.000228916
0.000210144
0.000190992
0.000171532
0.00015183
0.000131926
0.000111864
9.16791e-05
7.13922e-05
5.10407e-05
3.06459e-05
1.02152e-05
-0.000779376
-0.000886506
-0.000960786
-0.00100455
-0.00099533
-0.000889439
-0.000695008
-0.000504895
-0.000348997
-0.000205935
-7.78615e-05
3.41186e-05
0.000125853
0.000196437
0.000247796
0.000283489
0.000307064
0.000321306
0.000328323
0.000329713
0.000326696
0.000320215
0.000310998
0.000299608
0.000286485
0.000271973
0.000256342
0.000239806
0.000222536
0.000204669
0.000186319
0.00016757
0.000148501
0.000129164
0.000109614
8.98965e-05
7.00415e-05
5.00938e-05
3.00853e-05
1.00284e-05
-0.000556874
-0.000648851
-0.000715787
-0.000766717
-0.00076999
-0.000710797
-0.000592591
-0.00045105
-0.000311629
-0.000182212
-6.34073e-05
3.70927e-05
0.000116714
0.00017819
0.000224682
0.000258754
0.00028261
0.00029813
0.000306903
0.000310236
0.000309186
0.000304605
0.000297171
0.000287425
0.000275799
0.000262637
0.000248216
0.000232761
0.000216452
0.00019944
0.00018185
0.000163776
0.000145311
0.000126515
0.000107455
8.81839e-05
6.87431e-05
4.91832e-05
2.95461e-05
9.84873e-06
-0.000398889
-0.000492812
-0.000559004
-0.00060007
-0.000614269
-0.000579149
-0.0004881
-0.000371234
-0.000257178
-0.000152035
-5.49765e-05
3.02257e-05
0.000101255
0.000158313
0.000202812
0.000236424
0.000260782
0.000277399
0.000287616
0.000292565
0.000293187
0.000290251
0.000284389
0.000276113
0.000265839
0.000253908
0.000240599
0.000226141
0.000210726
0.000194511
0.000177631
0.000160191
0.000142292
0.000124006
0.000105408
8.656e-05
6.75113e-05
4.8319e-05
2.90341e-05
9.67809e-06
-0.000255185
-0.000345496
-0.000410987
-0.000455938
-0.000476189
-0.000459106
-0.000396135
-0.000307652
-0.000216102
-0.000128835
-4.65953e-05
2.77255e-05
9.13136e-05
0.000143586
0.000185352
0.000217772
0.00024202
0.000259241
0.000270496
0.000276725
0.000278733
0.000277205
0.000272714
0.000265737
0.000256673
0.000245853
0.000233553
0.000220007
0.00020541
0.000189929
0.000173704
0.000156851
0.000139478
0.000121665
0.000103497
8.50424e-05
6.63596e-05
4.75104e-05
2.85549e-05
9.51832e-06
-0.000144315
-0.000234954
-0.000301247
-0.000346017
-0.000371846
-0.000367363
-0.000323598
-0.000255077
-0.000180558
-0.000107611
-3.76772e-05
2.69577e-05
8.37054e-05
0.000131542
0.0001707
0.000201855
0.0002258
0.000243373
0.000255402
0.000262655
0.000265818
0.00026549
0.000262187
0.000256351
0.000248358
0.000238528
0.000227134
0.000214409
0.000200554
0.000185737
0.000170109
0.000153789
0.000136896
0.000119516
0.000101741
8.36473e-05
6.53e-05
4.67661e-05
2.81134e-05
9.37107e-06
-5.03799e-05
-0.000141544
-0.000208548
-0.000255619
-0.000285797
-0.000290632
-0.000262022
-0.000210079
-0.00015007
-8.92119e-05
-2.94623e-05
2.70545e-05
7.78924e-05
0.00012176
0.000158479
0.000188353
0.000211871
0.000229618
0.000242223
0.0002503
0.000254425
0.000255116
0.000252837
0.000247993
0.000240938
0.000231981
0.000221389
0.000209393
0.000196197
0.000181974
0.000166879
0.000151037
0.000134573
0.000117581
0.000100159
8.2389e-05
6.43436e-05
4.60936e-05
2.7714e-05
9.23777e-06
2.44701e-05
-6.78108e-05
-0.000136962
-0.00018615
-0.000219453
-0.000230605
-0.000213068
-0.000173936
-0.00012545
-7.4249e-05
-2.26552e-05
2.72265e-05
7.31043e-05
0.000113566
0.000148144
0.000176855
0.000199941
0.000217782
0.000230837
0.000239593
0.000244525
0.000246083
0.000244682
0.000240694
0.000234451
0.000226252
0.000216357
0.000204998
0.000192378
0.000178674
0.000164044
0.00014862
0.000132532
0.000115879
9.87671e-05
8.12801e-05
6.34999e-05
4.54992e-05
2.73603e-05
9.11958e-06
8.4339e-05
-9.91315e-06
-8.1187e-05
-0.000132724
-0.000168343
-0.000184004
-0.000174853
-0.000145776
-0.000106429
-6.2876e-05
-1.77331e-05
2.68627e-05
6.87446e-05
0.000106439
0.000139269
0.000167029
0.000189766
0.000207694
0.000221137
0.00023047
0.000236091
0.000238389
0.000237736
0.000234477
0.000228927
0.000221374
0.000212074
0.000201258
0.000189128
0.000175865
0.000161631
0.000146563
0.000130793
0.000114428
9.75786e-05
8.03314e-05
6.27768e-05
4.49881e-05
2.70551e-05
9.01699e-06
0.000130413
3.36649e-05
-4.02346e-05
-9.37406e-05
-0.000130682
-0.000149407
-0.000146579
-0.000125251
-9.29207e-05
-5.52128e-05
-1.50165e-05
2.55191e-05
6.43448e-05
9.99494e-05
0.000131493
0.000158592
0.000181139
0.000199216
0.000213035
0.00022289
0.00022911
0.000232041
0.000232021
0.000229373
0.000224401
0.000217385
0.000208576
0.000198206
0.000186479
0.000173578
0.000159666
0.000144888
0.000129377
0.000113247
9.6608e-05
7.95543e-05
6.2183e-05
4.45648e-05
2.68019e-05
8.93294e-06
0.000161993
6.21792e-05
-1.42123e-05
-6.92835e-05
-0.000106856
-0.000127423
-0.000128986
-0.00011315
-8.56668e-05
-5.19073e-05
-1.50399e-05
2.27561e-05
5.95392e-05
9.3793e-05
0.000124565
0.000151342
0.000173899
0.00019222
0.000206437
0.000216778
0.000223529
0.000227
0.000227509
0.000225364
0.000220861
0.000214275
0.000205858
0.000195842
0.00018443
0.000171812
0.00015815
0.000143597
0.000128282
0.000112334
9.5854e-05
7.89469e-05
6.17166e-05
4.4224e-05
2.65928e-05
8.85709e-06
0.000184068
8.02109e-05
1.27608e-07
-5.64025e-05
-9.4002e-05
-0.000115417
-0.000119481
-0.000106893
-8.24997e-05
-5.12418e-05
-1.63578e-05
1.98979e-05
5.55951e-05
8.91926e-05
0.000119657
0.000146382
0.00016907
0.000187643
0.000202184
0.000212888
0.000220012
0.000223851
0.00022471
0.000222893
0.000218691
0.000212378
0.000204207
0.000194409
0.000183192
0.000170747
0.000157236
0.00014282
0.000127622
0.000111783
9.53952e-05
7.85761e-05
6.14256e-05
4.40082e-05
2.64555e-05
8.80367e-06
)
;

boundaryField
{
    inlet
    {
        type            zeroGradient;
    }
    outlet
    {
        type            fixedValue;
        value           uniform 0;
    }
    lowerWall
    {
        type            zeroGradient;
    }
    upperWall
    {
        type            zeroGradient;
    }
    defaultFaces
    {
        type            empty;
    }
}


// ************************************************************************* //
