/*--------------------------------*- C++ -*----------------------------------*\
| =========                 |                                                 |
| \\      /  F ield         | OpenFOAM: The Open Source CFD Toolbox           |
|  \\    /   O peration     | Version:  2112                                  |
|   \\  /    A nd           | Website:  www.openfoam.com                      |
|    \\/     M anipulation  |                                                 |
\*---------------------------------------------------------------------------*/
FoamFile
{
    version     2.0;
    format      ascii;
    arch        "LSB;label=32;scalar=64";
    class       surfaceScalarField;
    location    "0.08";
    object      phi;
}
// * * * * * * * * * * * * * * * * * * * * * * * * * * * * * * * * * * * * * //

dimensions      [0 3 -1 0 0 0 0];

oriented        oriented;

internalField   nonuniform List<scalar> 
3653
(
9.92071e-07
7.9287e-09
9.7936e-07
1.27114e-08
9.66202e-07
1.31575e-08
9.50246e-07
1.59566e-08
9.32366e-07
1.78802e-08
9.15069e-07
1.72967e-08
8.99915e-07
1.51541e-08
8.87853e-07
1.20616e-08
8.79197e-07
8.65609e-09
8.73271e-07
5.92673e-09
8.69016e-07
4.2547e-09
8.65658e-07
3.35765e-09
8.62737e-07
2.92142e-09
8.59937e-07
2.8002e-09
8.57004e-07
2.93269e-09
8.53787e-07
3.21733e-09
8.50063e-07
3.72326e-09
8.45841e-07
4.22213e-09
8.40568e-07
5.27363e-09
8.34833e-07
5.73492e-09
8.26689e-07
8.14363e-09
8.18967e-07
7.72164e-09
8.05347e-07
1.36204e-08
7.94734e-07
1.06133e-08
7.71168e-07
2.35652e-08
7.53834e-07
1.73342e-08
7.12885e-07
4.0949e-08
6.76023e-07
3.68622e-08
5.94732e-07
8.12906e-08
9.80635e-08
4.96669e-07
1.00317e-06
4.76085e-09
1.0063e-06
9.58199e-09
1.00842e-06
1.1039e-08
1.01084e-06
1.35369e-08
1.01287e-06
1.58455e-08
1.01375e-06
1.64159e-08
1.01351e-06
1.53921e-08
1.01231e-06
1.32598e-08
1.01036e-06
1.06059e-08
1.00803e-06
8.25795e-09
1.00562e-06
6.66695e-09
1.0032e-06
5.78202e-09
1.0007e-06
5.41403e-09
9.98065e-07
5.4398e-09
9.95196e-07
5.80092e-09
9.91995e-07
6.41867e-09
9.8835e-07
7.36818e-09
9.84102e-07
8.47021e-09
9.79138e-07
1.02377e-08
9.73159e-07
1.17142e-08
9.66073e-07
1.52292e-08
9.57367e-07
1.64274e-08
9.46639e-07
2.43492e-08
9.34021e-07
2.32315e-08
9.16428e-07
4.11577e-08
8.98059e-07
3.57029e-08
8.69076e-07
6.99323e-08
8.38311e-07
6.76268e-08
8.01642e-07
1.1796e-07
1.44517e-07
7.55188e-07
1.00201e-06
2.74791e-09
1.00488e-06
6.71286e-09
1.00718e-06
8.74285e-09
1.01e-06
1.07133e-08
1.01302e-06
1.28306e-08
1.01526e-06
1.41679e-08
1.0164e-06
1.42562e-08
1.01639e-06
1.32691e-08
1.01534e-06
1.16561e-08
1.01359e-06
1.00066e-08
1.01152e-06
8.7391e-09
1.00932e-06
7.98386e-09
1.00702e-06
7.712e-09
1.0046e-06
7.86382e-09
1.00198e-06
8.41687e-09
9.99079e-07
9.32013e-09
9.95796e-07
1.06516e-08
9.9199e-07
1.22762e-08
9.87602e-07
1.46254e-08
9.82285e-07
1.70315e-08
9.76312e-07
2.12015e-08
9.68479e-07
2.4261e-08
9.60428e-07
3.23997e-08
9.48549e-07
3.51111e-08
9.37416e-07
5.22901e-08
9.20476e-07
5.2643e-08
9.04123e-07
8.62855e-08
8.84075e-07
8.76752e-08
8.62669e-07
1.39366e-07
1.63125e-07
8.44061e-07
1.00094e-06
1.80907e-09
1.00263e-06
5.02398e-09
1.00437e-06
7.00255e-09
1.0064e-06
8.67777e-09
1.00865e-06
1.05822e-08
1.01063e-06
1.21874e-08
1.01198e-06
1.29064e-08
1.01256e-06
1.2688e-08
1.01238e-06
1.18362e-08
1.01159e-06
1.07962e-08
1.01039e-06
9.94429e-09
1.0089e-06
9.47423e-09
1.00718e-06
9.43379e-09
1.00523e-06
9.81344e-09
1.00303e-06
1.06156e-08
1.00053e-06
1.18205e-08
9.97674e-07
1.3505e-08
9.94354e-07
1.55963e-08
9.90543e-07
1.84363e-08
9.85991e-07
2.15839e-08
9.80852e-07
2.63403e-08
9.74456e-07
3.06568e-08
9.67671e-07
3.91846e-08
9.58509e-07
4.42732e-08
9.50261e-07
6.05378e-08
9.37155e-07
6.57498e-08
9.28978e-07
9.44626e-08
9.1277e-07
1.03883e-07
9.09544e-07
1.42592e-07
1.70274e-07
9.02395e-07
1.00047e-06
1.33648e-09
1.00164e-06
3.85943e-09
1.00303e-06
5.60955e-09
1.00468e-06
7.02746e-09
1.00657e-06
8.69369e-09
1.00839e-06
1.03617e-08
1.00983e-06
1.14749e-08
1.01069e-06
1.18273e-08
1.01093e-06
1.15908e-08
1.01063e-06
1.10982e-08
1.00991e-06
1.06688e-08
1.00886e-06
1.05159e-08
1.00756e-06
1.07338e-08
1.00602e-06
1.13542e-08
1.00424e-06
1.24012e-08
1.00217e-06
1.38859e-08
9.99807e-07
1.58707e-08
9.97045e-07
1.83584e-08
9.93926e-07
2.15548e-08
9.90178e-07
2.53318e-08
9.86153e-07
3.03655e-08
9.81013e-07
3.57967e-08
9.7613e-07
4.40678e-08
9.69165e-07
5.1238e-08
9.64039e-07
6.56637e-08
9.55435e-07
7.43541e-08
9.51636e-07
9.82618e-08
9.44017e-07
1.11502e-07
9.44132e-07
1.42477e-07
1.72232e-07
9.42174e-07
1.00035e-06
9.8825e-10
1.0012e-06
3.01185e-09
1.0023e-06
4.50466e-09
1.00362e-06
5.70478e-09
1.00516e-06
7.16019e-09
1.00674e-06
8.78053e-09
1.00812e-06
1.00901e-08
1.00914e-06
1.08149e-08
1.0097e-06
1.10275e-08
1.00982e-06
1.09773e-08
1.00956e-06
1.09323e-08
1.00898e-06
1.10966e-08
1.00812e-06
1.15849e-08
1.00703e-06
1.24514e-08
1.0057e-06
1.37327e-08
1.00412e-06
1.54639e-08
1.00229e-06
1.76968e-08
1.00016e-06
2.04886e-08
9.97772e-07
2.39437e-08
9.94961e-07
2.8143e-08
9.91999e-07
3.33274e-08
9.88364e-07
3.94314e-08
9.85081e-07
4.73512e-08
9.80565e-07
5.57541e-08
9.77885e-07
6.83441e-08
9.7286e-07
7.93784e-08
9.72791e-07
9.83313e-08
9.69405e-07
1.14888e-07
9.74145e-07
1.37737e-07
1.64529e-07
9.81848e-07
1.00024e-06
7.50875e-10
1.00088e-06
2.37312e-09
1.00179e-06
3.59475e-09
1.00294e-06
4.55202e-09
1.00432e-06
5.78197e-09
1.0058e-06
7.29854e-09
1.00719e-06
8.70208e-09
1.00832e-06
9.68667e-09
1.0091e-06
1.02423e-08
1.00953e-06
1.05494e-08
1.00962e-06
1.08398e-08
1.00942e-06
1.12974e-08
1.00897e-06
1.20379e-08
1.00829e-06
1.31277e-08
1.00741e-06
1.46122e-08
1.00633e-06
1.65447e-08
1.00506e-06
1.89631e-08
1.00359e-06
2.19651e-08
1.00196e-06
2.5567e-08
1.00009e-06
3.00203e-08
9.98217e-07
3.51969e-08
9.95989e-07
4.166e-08
9.94241e-07
4.90988e-08
9.91917e-07
5.80784e-08
9.91211e-07
6.905e-08
9.89543e-07
8.1047e-08
9.91629e-07
9.6245e-08
9.92844e-07
1.13672e-07
9.99714e-07
1.30867e-07
1.57123e-07
1.00712e-06
1.00019e-06
5.56303e-10
1.00073e-06
1.83564e-09
1.00154e-06
2.79142e-09
1.00257e-06
3.51241e-09
1.00385e-06
4.5099e-09
1.00526e-06
5.88214e-09
1.00666e-06
7.30192e-09
1.0079e-06
8.45203e-09
1.00887e-06
9.26559e-09
1.00956e-06
9.86366e-09
1.00996e-06
1.04385e-08
1.01011e-06
1.1152e-08
1.01003e-06
1.2114e-08
1.00976e-06
1.33974e-08
1.00932e-06
1.50496e-08
1.00874e-06
1.71306e-08
1.00803e-06
1.96671e-08
1.00721e-06
2.27869e-08
1.00634e-06
2.64378e-08
1.00538e-06
3.09868e-08
1.00454e-06
3.60367e-08
1.00362e-06
4.25797e-08
1.00325e-06
4.94642e-08
1.00278e-06
5.85493e-08
1.00381e-06
6.80182e-08
1.00461e-06
8.02459e-08
1.00855e-06
9.23119e-08
1.01271e-06
1.09508e-07
1.02074e-06
1.22835e-07
1.44773e-07
1.03309e-06
1.00018e-06
3.81264e-10
1.00066e-06
1.34799e-09
1.00141e-06
2.04549e-09
1.0024e-06
2.52602e-09
1.00362e-06
3.28023e-09
1.00503e-06
4.47409e-09
1.00648e-06
5.8537e-09
1.00783e-06
7.105e-09
1.00898e-06
8.11396e-09
1.0099e-06
8.94803e-09
1.01057e-06
9.76179e-09
1.01103e-06
1.06965e-08
1.01129e-06
1.18486e-08
1.0114e-06
1.32886e-08
1.01139e-06
1.50636e-08
1.01128e-06
1.72376e-08
1.01112e-06
1.98295e-08
1.01092e-06
2.29821e-08
1.01077e-06
2.65949e-08
1.01065e-06
3.10983e-08
1.01076e-06
3.59344e-08
1.01101e-06
4.2322e-08
1.01184e-06
4.86389e-08
1.01296e-06
5.74324e-08
1.01537e-06
6.56021e-08
1.01819e-06
7.74299e-08
1.02351e-06
8.69866e-08
1.02977e-06
1.03249e-07
1.03926e-06
1.13353e-07
1.33087e-07
1.05094e-06
1.00017e-06
2.12406e-10
1.00065e-06
8.69173e-10
1.00138e-06
1.30823e-09
1.00237e-06
1.54451e-09
1.0036e-06
2.04434e-09
1.00504e-06
3.0335e-09
1.00657e-06
4.33127e-09
1.00804e-06
5.63464e-09
1.00936e-06
6.7917e-09
1.01048e-06
7.82201e-09
1.0114e-06
8.84146e-09
1.01214e-06
9.96468e-09
1.01271e-06
1.12723e-08
1.01317e-06
1.28302e-08
1.01355e-06
1.46845e-08
1.01389e-06
1.68993e-08
1.01423e-06
1.94868e-08
1.01462e-06
2.25932e-08
1.01512e-06
2.60924e-08
1.01579e-06
3.0434e-08
1.01673e-06
3.49893e-08
1.01801e-06
4.10427e-08
1.01986e-06
4.67895e-08
1.02228e-06
5.5016e-08
1.02582e-06
6.20613e-08
1.03018e-06
7.30691e-08
1.03649e-06
8.06761e-08
1.04426e-06
9.54757e-08
1.05416e-06
1.0345e-07
1.1981e-07
1.06744e-06
1.00018e-06
3.69428e-11
1.00068e-06
3.68274e-10
1.00144e-06
5.41053e-10
1.00246e-06
5.27698e-10
1.00374e-06
7.60869e-10
1.00526e-06
1.51986e-09
1.00688e-06
2.70442e-09
1.00849e-06
4.02783e-09
1.00998e-06
5.30472e-09
1.01129e-06
6.50635e-09
1.01243e-06
7.7061e-09
1.0134e-06
8.98985e-09
1.01425e-06
1.04221e-08
1.01502e-06
1.2062e-08
1.01575e-06
1.39528e-08
1.0165e-06
1.61573e-08
1.0173e-06
1.86845e-08
1.01822e-06
2.16759e-08
1.01931e-06
2.49977e-08
1.02066e-06
2.90849e-08
1.02234e-06
3.33058e-08
1.02449e-06
3.88972e-08
1.0272e-06
4.40736e-08
1.03066e-06
5.15558e-08
1.03511e-06
5.76202e-08
1.04062e-06
6.75508e-08
1.04767e-06
7.36339e-08
1.05636e-06
8.67786e-08
1.06686e-06
9.29507e-08
1.06749e-07
1.07992e-06
1.00019e-06
-1.53184e-10
1.00074e-06
-1.84743e-10
1.00158e-06
-2.95854e-10
1.00267e-06
-5.63047e-10
1.00404e-06
-6.09365e-10
1.00567e-06
-1.09109e-10
1.00743e-06
9.46443e-10
1.00918e-06
2.27488e-09
1.01083e-06
3.6596e-09
1.01231e-06
5.02381e-09
1.01362e-06
6.39022e-09
1.0148e-06
7.81323e-09
1.01588e-06
9.34205e-09
1.01691e-06
1.10291e-08
1.01795e-06
1.2915e-08
1.01905e-06
1.50613e-08
1.02026e-06
1.74771e-08
1.02164e-06
2.02937e-08
1.02325e-06
2.33838e-08
1.02519e-06
2.71447e-08
1.02751e-06
3.09891e-08
1.03037e-06
3.60305e-08
1.03381e-06
4.06413e-08
1.0381e-06
4.72678e-08
1.04324e-06
5.24781e-08
1.0496e-06
6.11853e-08
1.05713e-06
6.61086e-08
1.06646e-06
7.74425e-08
1.07713e-06
8.22881e-08
9.35752e-08
1.0903e-06
1.00022e-06
-3.75481e-10
1.00086e-06
-8.27064e-10
1.00182e-06
-1.24836e-09
1.00304e-06
-1.78135e-09
1.00454e-06
-2.11789e-09
1.0063e-06
-1.87009e-09
1.00821e-06
-9.56539e-10
1.0101e-06
3.82595e-10
1.01189e-06
1.873e-09
1.01351e-06
3.40492e-09
1.01496e-06
4.93392e-09
1.01629e-06
6.48172e-09
1.01755e-06
8.08136e-09
1.0188e-06
9.78141e-09
1.02009e-06
1.16228e-08
1.02149e-06
1.36664e-08
1.02304e-06
1.59237e-08
1.02482e-06
1.85143e-08
1.02688e-06
2.13257e-08
1.02932e-06
2.47053e-08
1.03217e-06
2.8138e-08
1.03562e-06
3.25767e-08
1.03964e-06
3.66231e-08
1.04457e-06
4.23434e-08
1.05025e-06
4.67932e-08
1.05721e-06
5.42286e-08
1.06508e-06
5.82363e-08
1.07476e-06
6.77619e-08
1.0855e-06
7.15509e-08
8.06717e-08
1.0984e-06
1.00027e-06
-6.40589e-10
1.00103e-06
-1.59582e-09
1.00215e-06
-2.36492e-09
1.00354e-06
-3.17077e-09
1.00523e-06
-3.813e-09
1.0072e-06
-3.83576e-09
1.00929e-06
-3.05004e-09
1.01135e-06
-1.67131e-09
1.01326e-06
-3.8691e-11
1.01495e-06
1.71672e-09
1.01647e-06
3.41112e-09
1.01788e-06
5.06762e-09
1.01926e-06
6.70868e-09
1.02066e-06
8.38329e-09
1.02214e-06
1.01372e-08
1.02378e-06
1.20325e-08
1.02561e-06
1.40862e-08
1.02772e-06
1.64059e-08
1.03015e-06
1.88984e-08
1.033e-06
2.18557e-08
1.03629e-06
2.48472e-08
1.04021e-06
2.86541e-08
1.0447e-06
3.21323e-08
1.0501e-06
3.69414e-08
1.0562e-06
4.06963e-08
1.06356e-06
4.6874e-08
1.07166e-06
5.01294e-08
1.0815e-06
5.79253e-08
1.09217e-06
6.08775e-08
6.80885e-08
1.10476e-06
1.00039e-06
-1.03467e-09
1.00141e-06
-2.61221e-09
1.00277e-06
-3.72694e-09
1.0044e-06
-4.79973e-09
1.00634e-06
-5.75017e-09
1.00852e-06
-6.01476e-09
1.01076e-06
-5.29183e-09
1.01289e-06
-3.80357e-09
1.01479e-06
-1.93491e-09
1.01647e-06
3.71541e-11
1.01801e-06
1.8705e-09
1.01946e-06
3.61443e-09
1.0209e-06
5.26658e-09
1.02241e-06
6.88152e-09
1.02403e-06
8.50871e-09
1.02585e-06
1.02144e-08
1.02791e-06
1.20236e-08
1.03029e-06
1.40329e-08
1.03301e-06
1.61712e-08
1.03619e-06
1.86754e-08
1.03984e-06
2.12025e-08
1.04413e-06
2.43662e-08
1.04899e-06
2.72714e-08
1.05474e-06
3.11919e-08
1.06115e-06
3.42883e-08
1.06875e-06
3.92663e-08
1.07702e-06
4.18657e-08
1.08687e-06
4.80679e-08
1.09743e-06
5.03253e-08
5.58921e-08
1.10962e-06
1.00052e-06
-1.55258e-09
1.00189e-06
-3.9847e-09
1.00359e-06
-5.42306e-09
1.00558e-06
-6.79241e-09
1.00792e-06
-8.09006e-09
1.01043e-06
-8.52738e-09
1.01287e-06
-7.73006e-09
1.01506e-06
-5.99661e-09
1.01693e-06
-3.80471e-09
1.01854e-06
-1.56691e-09
1.01993e-06
4.81263e-10
1.02124e-06
2.30359e-09
1.0226e-06
3.90785e-09
1.02409e-06
5.3914e-09
1.02577e-06
6.82595e-09
1.0277e-06
8.28468e-09
1.02992e-06
9.80178e-09
1.03249e-06
1.14609e-08
1.03545e-06
1.32124e-08
1.03889e-06
1.52389e-08
1.04281e-06
1.7283e-08
1.04737e-06
1.97993e-08
1.05252e-06
2.21296e-08
1.05851e-06
2.51943e-08
1.06515e-06
2.76556e-08
1.07291e-06
3.15044e-08
1.08126e-06
3.35101e-08
1.09107e-06
3.82655e-08
1.10147e-06
3.99223e-08
4.40785e-08
1.11328e-06
1.00099e-06
-2.54579e-09
1.0029e-06
-5.89473e-09
1.00498e-06
-7.5031e-09
1.00742e-06
-9.23039e-09
1.0102e-06
-1.08664e-08
1.01296e-06
-1.12906e-08
1.01543e-06
-1.02041e-08
1.01749e-06
-8.04953e-09
1.01909e-06
-5.40662e-09
1.02036e-06
-2.83311e-09
1.02147e-06
-6.34802e-10
1.02266e-06
1.12043e-09
1.02397e-06
2.5934e-09
1.02547e-06
3.89094e-09
1.0272e-06
5.09203e-09
1.02922e-06
6.26678e-09
1.03157e-06
7.4578e-09
1.03429e-06
8.7372e-09
1.03742e-06
1.00774e-08
1.04106e-06
1.1608e-08
1.04518e-06
1.31576e-08
1.04996e-06
1.5025e-08
1.0553e-06
1.67877e-08
1.06147e-06
1.90183e-08
1.06825e-06
2.08759e-08
1.07611e-06
2.36481e-08
1.08451e-06
2.51125e-08
1.09423e-06
2.85432e-08
1.10447e-06
2.96781e-08
3.26021e-08
1.11595e-06
1.00207e-06
-4.62073e-09
1.0052e-06
-9.02222e-09
1.00788e-06
-1.01799e-08
1.01114e-06
-1.24872e-08
1.01471e-06
-1.44386e-08
1.01779e-06
-1.43677e-08
1.02013e-06
-1.25472e-08
1.02173e-06
-9.64639e-09
1.02264e-06
-6.32575e-09
1.02319e-06
-3.37706e-09
1.02373e-06
-1.17904e-09
1.02445e-06
4.07073e-10
1.02541e-06
1.62614e-09
1.0267e-06
2.60331e-09
1.02834e-06
3.45142e-09
1.03035e-06
4.25341e-09
1.03275e-06
5.05836e-09
1.03557e-06
5.91813e-09
1.03883e-06
6.81907e-09
1.0426e-06
7.83706e-09
1.04688e-06
8.88001e-09
1.05181e-06
1.00992e-08
1.05729e-06
1.13026e-08
1.0636e-06
1.27115e-08
1.07046e-06
1.40103e-08
1.0784e-06
1.5716e-08
1.08677e-06
1.67344e-08
1.09646e-06
1.88591e-08
1.10656e-06
1.95781e-08
2.13803e-08
1.11778e-06
1.00323e-06
-7.85121e-09
1.00663e-06
-1.24217e-08
1.00916e-06
-1.27138e-08
1.01208e-06
-1.53991e-08
1.01476e-06
-1.71249e-08
1.0166e-06
-1.62076e-08
1.01773e-06
-1.36723e-08
1.01831e-06
-1.02245e-08
1.0185e-06
-6.51783e-09
1.01862e-06
-3.50149e-09
1.01896e-06
-1.51912e-09
1.01964e-06
-2.69369e-10
1.02069e-06
5.70035e-10
1.02211e-06
1.19094e-09
1.02388e-06
1.67417e-09
1.02604e-06
2.09771e-09
1.02859e-06
2.50703e-09
1.03157e-06
2.93559e-09
1.03501e-06
3.37973e-09
1.03897e-06
3.87842e-09
1.04346e-06
4.38844e-09
1.04858e-06
4.97839e-09
1.05432e-06
5.56919e-09
1.0608e-06
6.23366e-09
1.06792e-06
6.88739e-09
1.07598e-06
7.65664e-09
1.08451e-06
8.19868e-09
1.09426e-06
9.11199e-09
1.10437e-06
9.47226e-09
1.00927e-08
1.11565e-06
9.92149e-07
9.79727e-07
9.67013e-07
9.51614e-07
9.34489e-07
9.18282e-07
9.04609e-07
8.94385e-07
8.87867e-07
8.84366e-07
8.82847e-07
8.82577e-07
8.83147e-07
8.84338e-07
8.86012e-07
8.8811e-07
8.90617e-07
8.93553e-07
8.96932e-07
9.00811e-07
9.05199e-07
9.10178e-07
9.15747e-07
9.2198e-07
9.28868e-07
9.36524e-07
9.44723e-07
9.53835e-07
9.63307e-07
9.734e-07
5.79858e-07
-8.31895e-08
6.33497e-07
-5.36387e-08
7.22525e-07
-8.90282e-08
6.89827e-07
3.26988e-08
7.92056e-07
-1.02229e-07
7.99183e-07
-7.12727e-09
7.57305e-07
4.18781e-08
9.66321e-07
-2.09016e-07
1.00983e-06
-4.35143e-08
-2.14045e-09
1.01198e-06
8.07309e-07
-1.35311e-07
8.29363e-07
-7.56922e-08
8.38935e-07
-9.86004e-08
9.30456e-07
-5.88224e-08
9.04908e-07
-7.66804e-08
9.21856e-07
-2.40756e-08
1.02045e-06
-5.67114e-08
1.0989e-06
-2.87475e-07
1.02996e-06
2.54277e-08
-9.19921e-08
1.11981e-06
8.51226e-07
-1.42476e-07
8.74996e-07
-9.94628e-08
8.99397e-07
-1.23001e-07
9.13092e-07
-7.25171e-08
9.26959e-07
-9.0548e-08
1.00446e-06
-1.01574e-07
1.01856e-06
-7.08172e-08
9.90842e-07
-2.59752e-07
1.10171e-06
-8.54411e-08
-2.38816e-07
1.24853e-06
9.10191e-07
-1.50271e-07
9.34106e-07
-1.23378e-07
9.31006e-07
-1.19901e-07
9.64281e-07
-1.05792e-07
9.7777e-07
-1.04037e-07
1.00411e-06
-1.27914e-07
1.04326e-06
-1.09969e-07
1.01353e-06
-2.30017e-07
1.09704e-06
-1.68959e-07
-2.88614e-07
1.14684e-06
9.49967e-07
-1.58065e-07
9.51781e-07
-1.25193e-07
9.66233e-07
-1.34352e-07
9.80008e-07
-1.19568e-07
9.9131e-07
-1.15339e-07
1.01441e-06
-1.51013e-07
1.04306e-06
-1.38617e-07
1.04577e-06
-2.32729e-07
1.07859e-06
-2.01782e-07
-2.99122e-07
1.0891e-06
9.77519e-07
-1.53735e-07
9.91385e-07
-1.39059e-07
9.9174e-07
-1.34708e-07
1.00347e-06
-1.313e-07
1.02229e-06
-1.34156e-07
1.02782e-06
-1.56543e-07
1.04621e-06
-1.57002e-07
1.0374e-06
-2.23922e-07
1.06863e-06
-2.33013e-07
-3.05968e-07
1.07548e-06
1.00839e-06
-1.55001e-07
1.00752e-06
-1.38195e-07
1.01123e-06
-1.38413e-07
1.01959e-06
-1.39666e-07
1.0235e-06
-1.38058e-07
1.03077e-06
-1.63819e-07
1.04574e-06
-1.71972e-07
1.04227e-06
-2.20452e-07
1.04607e-06
-2.36814e-07
-3.01822e-07
1.04193e-06
1.02713e-06
-1.49039e-07
1.02937e-06
-1.40438e-07
1.02978e-06
-1.38823e-07
1.0307e-06
-1.40583e-07
1.03929e-06
-1.46644e-07
1.03767e-06
-1.62207e-07
1.04078e-06
-1.75082e-07
1.03509e-06
-2.14763e-07
1.03686e-06
-2.38581e-07
-2.88169e-07
1.02321e-06
1.04628e-06
-1.44375e-07
1.04302e-06
-1.37178e-07
1.04009e-06
-1.35896e-07
1.04066e-06
-1.4115e-07
1.03863e-06
-1.44613e-07
1.03708e-06
-1.60665e-07
1.03728e-06
-1.75277e-07
1.02881e-06
-2.06297e-07
1.0197e-06
-2.2947e-07
-2.72555e-07
1.00409e-06
1.05987e-06
-1.36801e-07
1.05488e-06
-1.32193e-07
1.05102e-06
-1.32038e-07
1.04605e-06
-1.36178e-07
1.04387e-06
-1.42427e-07
1.03802e-06
-1.54821e-07
1.03212e-06
-1.69379e-07
1.02108e-06
-1.95253e-07
1.00948e-06
-2.17866e-07
-2.52123e-07
9.89045e-07
1.07121e-06
-1.28091e-07
1.06401e-06
-1.2499e-07
1.05693e-06
-1.2496e-07
1.0505e-06
-1.29748e-07
1.04345e-06
-1.35373e-07
1.03554e-06
-1.46914e-07
1.02669e-06
-1.60521e-07
1.01332e-06
-1.81884e-07
9.97165e-07
-2.01715e-07
-2.30827e-07
9.7587e-07
1.08003e-06
-1.17825e-07
1.07084e-06
-1.1579e-07
1.06231e-06
-1.16436e-07
1.05293e-06
-1.2037e-07
1.044e-06
-1.26435e-07
1.03353e-06
-1.36446e-07
1.02158e-06
-1.48576e-07
1.00605e-06
-1.66353e-07
9.88266e-07
-1.83931e-07
-2.07533e-07
9.64971e-07
1.08679e-06
-1.06217e-07
1.07608e-06
-1.05077e-07
1.06545e-06
-1.05806e-07
1.0545e-06
-1.09415e-07
1.04308e-06
-1.15023e-07
1.03051e-06
-1.23872e-07
1.01644e-06
-1.34504e-07
9.99339e-07
-1.49254e-07
9.79509e-07
-1.64101e-07
-1.83761e-07
9.55737e-07
1.09198e-06
-9.34385e-08
1.07979e-06
-9.28861e-08
1.06773e-06
-9.37461e-08
1.05511e-06
-9.67981e-08
1.04204e-06
-1.01959e-07
1.02776e-06
-1.09582e-07
1.01192e-06
-1.18668e-07
9.93445e-07
-1.30779e-07
9.72617e-07
-1.43274e-07
-1.59171e-07
9.48027e-07
1.09579e-06
-7.9603e-08
1.08239e-06
-7.94888e-08
1.06899e-06
-8.03405e-08
1.05514e-06
-8.29523e-08
1.04065e-06
-8.74722e-08
1.02496e-06
-9.38936e-08
1.00781e-06
-1.01511e-07
9.88351e-07
-1.11324e-07
9.66595e-07
-1.21517e-07
-1.34347e-07
9.41771e-07
1.09857e-06
-6.48949e-08
1.08413e-06
-6.5043e-08
1.06969e-06
-6.58991e-08
1.0548e-06
-6.80621e-08
1.03924e-06
-7.19192e-08
1.02249e-06
-7.71445e-08
1.00434e-06
-8.33561e-08
9.84106e-07
-9.10902e-08
9.61813e-07
-9.92236e-08
-1.09213e-07
9.36679e-07
1.10055e-06
-4.94976e-08
1.08528e-06
-4.97729e-08
1.07001e-06
-5.06287e-08
1.05429e-06
-5.23449e-08
1.03791e-06
-5.55377e-08
1.02036e-06
-5.95876e-08
1.00145e-06
-6.44542e-08
9.80642e-07
-7.0278e-08
9.57918e-07
-7.65e-08
-8.3912e-08
9.32617e-07
1.10178e-06
-3.35011e-08
1.08581e-06
-3.37978e-08
1.06981e-06
-3.46259e-08
1.05336e-06
-3.59005e-08
1.03622e-06
-3.84002e-08
1.01793e-06
-4.12904e-08
9.98402e-07
-4.49299e-08
9.76967e-07
-4.88433e-08
9.53828e-07
-5.33603e-08
-5.81823e-08
9.28098e-07
1.09786e-06
-1.57039e-08
1.08026e-06
-1.62055e-08
1.06267e-06
-1.70301e-08
1.0448e-06
-1.80353e-08
1.0261e-06
-1.97018e-08
1.00636e-06
-2.15424e-08
9.85282e-07
-2.3855e-08
9.62314e-07
-2.58759e-08
9.37568e-07
-2.86142e-08
-3.08875e-08
9.10274e-07
9.57696e-07
9.41491e-07
9.24461e-07
9.06425e-07
8.86723e-07
8.65181e-07
8.41326e-07
8.1545e-07
7.86836e-07
7.55948e-07
-1.62733e-07
1.62733e-07
-3.27161e-07
1.64429e-07
-4.89181e-07
1.62019e-07
-5.08145e-07
1.89641e-08
-3.51621e-07
-1.56523e-07
-1.66671e-07
-1.8495e-07
4.61532e-09
-1.71286e-07
1.43636e-07
-1.39021e-07
2.49971e-07
-1.06334e-07
3.28618e-07
-7.86476e-08
3.85504e-07
-5.68853e-08
4.26145e-07
-4.06418e-08
4.55104e-07
-2.8959e-08
4.75889e-07
-2.0785e-08
4.91033e-07
-1.51433e-08
5.02282e-07
-1.12487e-08
5.10813e-07
-8.5315e-09
5.17414e-07
-6.60124e-09
5.22613e-07
-5.19883e-09
5.26769e-07
-4.15583e-09
5.30132e-07
-3.36271e-09
5.32879e-07
-2.74705e-09
5.35139e-07
-2.26071e-09
5.37011e-07
-1.87148e-09
5.38568e-07
-1.55677e-09
5.39868e-07
-1.29999e-09
5.40956e-07
-1.08879e-09
5.41871e-07
-9.14176e-10
5.4264e-07
-7.69225e-10
5.43288e-07
-6.48093e-10
5.43836e-07
-5.48025e-10
5.44297e-07
-4.61537e-10
5.44693e-07
-3.95906e-10
5.45022e-07
-3.28511e-10
5.45315e-07
-2.93184e-10
5.45549e-07
-2.34371e-10
5.4577e-07
-2.202e-10
5.45945e-07
-1.7493e-10
5.46113e-07
-1.68189e-10
-1.41237e-10
-1.27504e-07
2.90237e-07
-3.42252e-07
3.79177e-07
-5.54797e-07
3.74563e-07
-5.50935e-07
1.51027e-08
-3.50933e-07
-3.56526e-07
-1.3453e-07
-4.01353e-07
5.35693e-08
-3.59386e-07
2.03056e-07
-2.88507e-07
3.20331e-07
-2.2361e-07
4.10969e-07
-1.69286e-07
4.80036e-07
-1.25953e-07
5.3212e-07
-9.27259e-08
5.71296e-07
-6.81345e-08
6.00883e-07
-5.03727e-08
6.23425e-07
-3.76854e-08
6.40797e-07
-2.862e-08
6.54351e-07
-2.20861e-08
6.65059e-07
-1.73089e-08
6.73615e-07
-1.37546e-08
6.8052e-07
-1.10611e-08
6.86141e-07
-8.98393e-09
6.9075e-07
-7.35638e-09
6.94553e-07
-6.0633e-09
6.97706e-07
-5.02423e-09
7.00331e-07
-4.18154e-09
7.02523e-07
-3.49266e-09
7.0436e-07
-2.92573e-09
7.05903e-07
-2.45665e-09
7.07201e-07
-2.06742e-09
7.08295e-07
-1.74196e-09
7.0922e-07
-1.47339e-09
7.09999e-07
-1.24083e-09
7.10667e-07
-1.06323e-09
7.11221e-07
-8.82434e-10
7.1171e-07
-7.82746e-10
7.12104e-07
-6.28412e-10
7.12466e-07
-5.81709e-10
7.12754e-07
-4.63064e-10
7.13025e-07
-4.39212e-10
-3.5467e-10
-1.36731e-07
4.26967e-07
-3.5537e-07
5.97817e-07
-5.7981e-07
5.99003e-07
-5.5105e-07
-1.36571e-08
-3.12955e-07
-5.94621e-07
-6.15184e-08
-6.52789e-07
1.23328e-07
-5.44232e-07
2.5283e-07
-4.18009e-07
3.51656e-07
-3.22436e-07
4.30856e-07
-2.48486e-07
4.93708e-07
-1.88805e-07
5.42538e-07
-1.41556e-07
5.80116e-07
-1.05713e-07
6.09086e-07
-7.93425e-08
6.31592e-07
-6.01909e-08
6.49249e-07
-4.62776e-08
6.63244e-07
-3.60811e-08
6.74442e-07
-2.8507e-08
6.8348e-07
-2.27923e-08
6.9083e-07
-1.84112e-08
6.96848e-07
-1.50014e-08
7.01802e-07
-1.23113e-08
7.05903e-07
-1.01637e-08
7.0931e-07
-8.43161e-09
7.12152e-07
-7.02298e-09
7.14528e-07
-5.86924e-09
7.16521e-07
-4.91868e-09
7.18196e-07
-4.13145e-09
7.19607e-07
-3.47795e-09
7.20796e-07
-2.93104e-09
7.21802e-07
-2.47974e-09
7.2265e-07
-2.08854e-09
7.23375e-07
-1.78886e-09
7.23979e-07
-1.48564e-09
7.2451e-07
-1.31386e-09
7.2494e-07
-1.0583e-09
7.25331e-07
-9.72955e-10
7.25643e-07
-7.75438e-10
7.25936e-07
-7.32431e-10
-5.80063e-10
-1.42891e-07
5.69858e-07
-3.34402e-07
7.89328e-07
-4.68081e-07
7.32682e-07
-4.1458e-07
-6.71582e-08
-1.97661e-07
-8.1154e-07
6.99189e-08
-9.20369e-07
2.60438e-07
-7.34751e-07
3.66669e-07
-5.2424e-07
4.30269e-07
-3.86036e-07
4.81249e-07
-2.99466e-07
5.26148e-07
-2.33703e-07
5.64149e-07
-1.79557e-07
5.94987e-07
-1.3655e-07
6.19557e-07
-1.03913e-07
6.39105e-07
-7.97386e-08
6.5475e-07
-6.19229e-08
6.67369e-07
-4.87003e-08
6.77621e-07
-3.87592e-08
6.86003e-07
-3.1174e-08
6.92893e-07
-2.53007e-08
6.98582e-07
-2.06905e-08
7.03299e-07
-1.70281e-08
7.07223e-07
-1.40881e-08
7.10498e-07
-1.17069e-08
7.13239e-07
-9.76368e-09
7.15538e-07
-8.16784e-09
7.17469e-07
-6.85048e-09
7.19096e-07
-5.75781e-09
7.20467e-07
-4.84967e-09
7.21625e-07
-4.0888e-09
7.22606e-07
-3.46038e-09
7.23433e-07
-2.91543e-09
7.24141e-07
-2.4967e-09
7.2473e-07
-2.07501e-09
7.25248e-07
-1.83215e-09
7.25669e-07
-1.47857e-09
7.26051e-07
-1.35502e-09
7.26355e-07
-1.07973e-09
7.26641e-07
-1.01816e-09
-7.99021e-10
-1.33279e-07
7.03137e-07
-1.1459e-07
7.70639e-07
-1.71937e-07
7.90029e-07
-8.67043e-08
-1.5239e-07
3.7388e-08
-9.35632e-07
1.93497e-07
-1.07648e-06
3.5935e-07
-9.00604e-07
4.73107e-07
-6.37996e-07
5.25516e-07
-4.38445e-07
5.51328e-07
-3.25277e-07
5.72764e-07
-2.5514e-07
5.94476e-07
-2.01269e-07
6.15132e-07
-1.57207e-07
6.33402e-07
-1.22183e-07
6.48926e-07
-9.52621e-08
6.619e-07
-7.48971e-08
6.72688e-07
-5.94887e-08
6.81653e-07
-4.77244e-08
6.89111e-07
-3.86315e-08
6.95324e-07
-3.15138e-08
7.00509e-07
-2.58759e-08
7.04845e-07
-2.13634e-08
7.08476e-07
-1.77192e-08
7.11522e-07
-1.47534e-08
7.14083e-07
-1.23238e-08
7.16237e-07
-1.03224e-08
7.18053e-07
-8.66622e-09
7.19585e-07
-7.28994e-09
7.2088e-07
-6.14431e-09
7.21974e-07
-5.18321e-09
7.22902e-07
-4.38844e-09
7.23685e-07
-3.69891e-09
7.24356e-07
-3.1677e-09
7.24916e-07
-2.63438e-09
7.25408e-07
-2.32398e-09
7.25807e-07
-1.87764e-09
7.2617e-07
-1.71783e-09
7.26458e-07
-1.36828e-09
7.26729e-07
-1.2892e-09
-1.00612e-09
4.29311e-07
2.73826e-07
3.85328e-07
8.14622e-07
2.75555e-07
8.99801e-07
3.62581e-07
-2.39416e-07
4.31418e-07
-1.00447e-06
3.98052e-07
-1.04311e-06
3.91392e-07
-8.93944e-07
4.6785e-07
-7.14455e-07
5.47844e-07
-5.18439e-07
5.93646e-07
-3.7108e-07
6.14677e-07
-2.76171e-07
6.27009e-07
-2.13601e-07
6.38219e-07
-1.68416e-07
6.4957e-07
-1.33534e-07
6.60466e-07
-1.06157e-07
6.70353e-07
-8.47841e-08
6.79026e-07
-6.81624e-08
6.865e-07
-5.51977e-08
6.92877e-07
-4.50092e-08
6.98292e-07
-3.69284e-08
7.02876e-07
-3.04596e-08
7.0675e-07
-2.52378e-08
7.10023e-07
-2.0992e-08
7.12787e-07
-1.75178e-08
7.15123e-07
-1.46594e-08
7.17097e-07
-1.22965e-08
7.18766e-07
-1.03358e-08
7.20179e-07
-8.70281e-09
7.21376e-07
-7.341e-09
7.2239e-07
-6.1968e-09
7.2325e-07
-5.24929e-09
7.23978e-07
-4.42666e-09
7.24602e-07
-3.79156e-09
7.25123e-07
-3.15502e-09
7.25581e-07
-2.78195e-09
7.25952e-07
-2.24944e-09
7.26291e-07
-2.05596e-09
7.26559e-07
-1.63705e-09
7.26812e-07
-1.54156e-09
-1.19874e-09
3.12832e-07
-3.90055e-08
4.77687e-07
6.49766e-07
6.33343e-07
7.44146e-07
7.30717e-07
-3.36791e-07
7.45963e-07
-1.01972e-06
6.53429e-07
-9.50578e-07
4.99587e-07
-7.40102e-07
4.43574e-07
-6.58441e-07
4.92649e-07
-5.67514e-07
5.64667e-07
-4.43097e-07
6.15039e-07
-3.26543e-07
6.41273e-07
-2.39836e-07
6.54737e-07
-1.8188e-07
6.63797e-07
-1.42595e-07
6.71687e-07
-1.14047e-07
6.79042e-07
-9.21395e-08
6.85787e-07
-7.49076e-08
6.91813e-07
-6.12229e-08
6.97093e-07
-5.02899e-08
7.01667e-07
-4.15016e-08
7.05598e-07
-3.43908e-08
7.08961e-07
-2.86013e-08
7.1183e-07
-2.38608e-08
7.14272e-07
-1.996e-08
7.16349e-07
-1.67359e-08
7.18113e-07
-1.40609e-08
7.19612e-07
-1.18345e-08
7.20885e-07
-9.97561e-09
7.21966e-07
-8.42218e-09
7.22884e-07
-7.11479e-09
7.23665e-07
-6.03053e-09
7.24327e-07
-5.08823e-09
7.24895e-07
-4.35944e-09
7.25369e-07
-3.6295e-09
7.25787e-07
-3.19967e-09
7.26126e-07
-2.58878e-09
7.26435e-07
-2.36468e-09
7.2668e-07
-1.88243e-09
7.26911e-07
-1.7719e-09
-1.37444e-09
9.50179e-07
2.27912e-08
1.0153e-06
5.84642e-07
1.20733e-06
5.52121e-07
1.19618e-06
-3.25644e-07
9.67835e-07
-7.91371e-07
8.1385e-07
-7.96592e-07
7.37106e-07
-6.63358e-07
6.50506e-07
-5.71841e-07
6.00087e-07
-5.17095e-07
6.10006e-07
-4.53016e-07
6.46808e-07
-3.63345e-07
6.79017e-07
-2.72044e-07
6.99234e-07
-2.02097e-07
7.10599e-07
-1.5396e-07
7.17686e-07
-1.21133e-07
7.23192e-07
-9.76453e-08
7.28141e-07
-7.98568e-08
7.32747e-07
-6.58295e-08
7.36978e-07
-5.45208e-08
7.40781e-07
-4.53044e-08
7.4414e-07
-3.77495e-08
7.4707e-07
-3.15316e-08
7.49606e-07
-2.63965e-08
7.51788e-07
-2.21424e-08
7.5366e-07
-1.86075e-08
7.55261e-07
-1.56621e-08
7.56628e-07
-1.32021e-08
7.57795e-07
-1.11423e-08
7.5879e-07
-9.41695e-09
7.59637e-07
-7.96205e-09
7.6036e-07
-6.75343e-09
7.60974e-07
-5.7017e-09
7.61501e-07
-4.88699e-09
7.61943e-07
-4.07093e-09
7.62332e-07
-3.58878e-09
7.62648e-07
-2.90516e-09
7.62936e-07
-2.65266e-09
7.63165e-07
-2.11141e-09
7.6338e-07
-1.9868e-09
-1.5383e-09
1.21336e-06
-7.0752e-08
1.34694e-06
4.51061e-07
1.50501e-06
3.94052e-07
1.4052e-06
-2.25835e-07
1.08657e-06
-4.72737e-07
9.02595e-07
-6.12622e-07
9.38021e-07
-6.98785e-07
9.79154e-07
-6.12974e-07
9.24566e-07
-4.62507e-07
8.2645e-07
-3.549e-07
7.54836e-07
-2.91731e-07
7.25136e-07
-2.42345e-07
7.18289e-07
-1.9525e-07
7.20569e-07
-1.5624e-07
7.25379e-07
-1.25942e-07
7.30316e-07
-1.02583e-07
7.34741e-07
-8.42824e-08
7.38611e-07
-6.96993e-08
7.42011e-07
-5.79202e-08
7.45013e-07
-4.83068e-08
7.47664e-07
-4.04006e-08
7.49995e-07
-3.38627e-08
7.52034e-07
-2.84349e-08
7.53807e-07
-2.39151e-08
7.55341e-07
-2.01422e-08
7.56665e-07
-1.69857e-08
7.57803e-07
-1.43404e-08
7.5878e-07
-1.2119e-08
7.59617e-07
-1.02537e-08
7.60332e-07
-8.67762e-09
7.60945e-07
-7.36603e-09
7.61466e-07
-6.223e-09
7.61915e-07
-5.33638e-09
7.62292e-07
-4.44765e-09
7.62625e-07
-3.92142e-09
7.62896e-07
-3.17594e-09
7.63142e-07
-2.89935e-09
7.63339e-07
-2.3077e-09
7.63523e-07
-2.17103e-09
-1.67878e-09
1.17418e-06
3.60219e-09
1.28839e-06
3.36849e-07
1.44106e-06
2.41387e-07
1.37845e-06
-1.63223e-07
1.27221e-06
-3.66504e-07
1.1324e-06
-4.72808e-07
1.00279e-06
-5.69173e-07
9.68483e-07
-5.7867e-07
9.8383e-07
-4.77854e-07
9.65649e-07
-3.36719e-07
9.05331e-07
-2.31414e-07
8.39772e-07
-1.76786e-07
7.9299e-07
-1.48467e-07
7.66e-07
-1.2925e-07
7.52615e-07
-1.12558e-07
7.47109e-07
-9.70762e-08
7.45757e-07
-8.29308e-08
7.46409e-07
-7.03518e-08
7.47909e-07
-5.94202e-08
7.4968e-07
-5.00769e-08
7.51452e-07
-4.21735e-08
7.53114e-07
-3.5524e-08
7.5462e-07
-2.99414e-08
7.55961e-07
-2.52564e-08
7.57142e-07
-2.13227e-08
7.58173e-07
-1.80169e-08
7.59069e-07
-1.5236e-08
7.59843e-07
-1.28936e-08
7.60511e-07
-1.09218e-08
7.61086e-07
-9.252e-09
7.6158e-07
-7.86e-09
7.62002e-07
-6.64491e-09
7.62367e-07
-5.70128e-09
7.62673e-07
-4.75431e-09
7.62945e-07
-4.19284e-09
7.63166e-07
-3.39725e-09
7.63368e-07
-3.10123e-09
7.63529e-07
-2.46849e-09
7.6368e-07
-2.32203e-09
-1.79392e-09
1.06951e-06
8.09306e-08
1.19898e-06
2.07386e-07
1.29664e-06
1.43724e-07
1.24879e-06
-1.15371e-07
1.19741e-06
-3.15124e-07
1.05334e-06
-3.28743e-07
7.79524e-07
-2.95355e-07
5.68068e-07
-3.67214e-07
5.15848e-07
-4.25634e-07
5.64833e-07
-3.85704e-07
6.33257e-07
-2.99838e-07
6.83896e-07
-2.27425e-07
7.14525e-07
-1.79096e-07
7.31725e-07
-1.4645e-07
7.41169e-07
-1.22002e-07
7.46367e-07
-1.02274e-07
7.49348e-07
-8.59119e-08
7.51268e-07
-7.22711e-08
7.52731e-07
-6.08832e-08
7.54005e-07