/*--------------------------------*- C++ -*----------------------------------*\
| =========                 |                                                 |
| \\      /  F ield         | OpenFOAM: The Open Source CFD Toolbox           |
|  \\    /   O peration     | Version:  2112                                  |
|   \\  /    A nd           | Website:  www.openfoam.com                      |
|    \\/     M anipulation  |                                                 |
\*---------------------------------------------------------------------------*/
FoamFile
{
    version     2.0;
    format      ascii;
    arch        "LSB;label=32;scalar=64";
    class       volVectorField;
    location    "0.08";
    object      U;
}
// * * * * * * * * * * * * * * * * * * * * * * * * * * * * * * * * * * * * * //

dimensions      [0 1 -1 0 0 0 0];

internalField   nonuniform List<vector> 
1880
(
(0.0991333 0.000662668 0)
(0.0981216 0.00107211 0)
(0.097797 0.00112834 0)
(0.0962909 0.00138431 0)
(0.0938202 0.00153805 0)
(0.0921392 0.00144775 0)
(0.0908923 0.00121243 0)
(0.0894406 0.000909459 0)
(0.0882105 0.000605581 0)
(0.0875007 0.000378359 0)
(0.0870842 0.000246846 0)
(0.0867311 0.000179578 0)
(0.0864072 0.000147282 0)
(0.0861174 0.000136981 0)
(0.085835 0.000142535 0)
(0.0855279 0.000156332 0)
(0.0851837 0.00018242 0)
(0.084776 0.000206139 0)
(0.084319 0.000262201 0)
(0.0837243 0.000279028 0)
(0.083111 0.000411739 0)
(0.0821656 0.000373503 0)
(0.0813534 0.000691941 0)
(0.0797857 0.000525302 0)
(0.0785927 0.00119085 0)
(0.0761012 0.000886703 0)
(0.0737478 0.00220231 0)
(0.0696629 0.00179245 0)
(0.0644904 0.00511845 0)
(0.0558201 0.00567645 0)
(0.100191 0.000766715 0)
(0.0999652 0.00134691 0)
(0.10095 0.00143013 0)
(0.10138 0.00172713 0)
(0.100906 0.00197035 0)
(0.10112 0.00196023 0)
(0.101604 0.00176965 0)
(0.101484 0.00146259 0)
(0.101081 0.00110164 0)
(0.100838 0.000793876 0)
(0.100681 0.000593926 0)
(0.100459 0.000484157 0)
(0.100192 0.000432555 0)
(0.0999255 0.000420934 0)
(0.0996506 0.000442444 0)
(0.0993514 0.000485919 0)
(0.0990005 0.000560073 0)
(0.0986209 0.000636998 0)
(0.0981209 0.000787754 0)
(0.0976502 0.000866293 0)
(0.0968406 0.00120725 0)
(0.0963399 0.00116592 0)
(0.0948748 0.00201321 0)
(0.0945249 0.00157239 0)
(0.091852 0.00347726 0)
(0.09174 0.00251019 0)
(0.0873551 0.00586 0)
(0.0870873 0.00535339 0)
(0.0806433 0.0106472 0)
(0.0805673 0.0130498 0)
(0.100197 0.000273285 0)
(0.0998378 0.00065533 0)
(0.100784 0.000841108 0)
(0.101259 0.00104596 0)
(0.100863 0.00126011 0)
(0.101197 0.00137815 0)
(0.101828 0.00136243 0)
(0.101839 0.00123792 0)
(0.101537 0.00105718 0)
(0.101367 0.000884659 0)
(0.101258 0.000758951 0)
(0.101064 0.000686044 0)
(0.100815 0.000658546 0)
(0.100568 0.000668998 0)
(0.100317 0.000715017 0)
(0.100046 0.000791864 0)
(0.0997295 0.000905632 0)
(0.0993864 0.00104531 0)
(0.0989484 0.00124687 0)
(0.0985185 0.00145575 0)
(0.097843 0.00181748 0)
(0.0973641 0.00208217 0)
(0.096201 0.00281707 0)
(0.0958376 0.00301059 0)
(0.0937672 0.00467644 0)
(0.0936802 0.00451818 0)
(0.0906106 0.00795631 0)
(0.0900998 0.00796134 0)
(0.0874842 0.0129824 0)
(0.0846093 0.0162949 0)
(0.100204 0.00023907 0)
(0.0996945 0.000630553 0)
(0.100523 0.000852204 0)
(0.100934 0.00104366 0)
(0.100459 0.00125335 0)
(0.100732 0.00140549 0)
(0.10136 0.00144314 0)
(0.101418 0.00137468 0)
(0.101193 0.00123946 0)
(0.101118 0.00109027 0)
(0.101103 0.000969795 0)
(0.100991 0.00089679 0)
(0.100806 0.000873066 0)
(0.100611 0.000894897 0)
(0.100403 0.000960249 0)
(0.100175 0.00106414 0)
(0.0998953 0.0012153 0)
(0.0996097 0.00139994 0)
(0.0992045 0.00166374 0)
(0.0988807 0.00193649 0)
(0.0982278 0.00239794 0)
(0.0979504 0.00274973 0)
(0.0968255 0.00361977 0)
(0.0967661 0.00397793 0)
(0.0949018 0.00570482 0)
(0.0952204 0.00595796 0)
(0.0925184 0.00916878 0)
(0.0933517 0.00955866 0)
(0.0898721 0.0146465 0)
(0.0920339 0.016084 0)
(0.100205 0.000144179 0)
(0.0996332 0.000408483 0)
(0.100407 0.000583937 0)
(0.100778 0.000728532 0)
(0.100265 0.000900514 0)
(0.10051 0.00106789 0)
(0.101133 0.00117105 0)
(0.101211 0.00119191 0)
(0.101024 0.00115148 0)
(0.100996 0.00108631 0)
(0.101032 0.00102975 0)
(0.100967 0.00100259 0)
(0.100826 0.00101318 0)
(0.100673 0.00106403 0)
(0.100506 0.00115694 0)
(0.100321 0.00129196 0)
(0.100086 0.00147569 0)
(0.0998572 0.00170628 0)
(0.0995082 0.00200798 0)
(0.0992747 0.00235929 0)
(0.0986957 0.00284599 0)
(0.0985752 0.00334676 0)
(0.0975654 0.00417817 0)
(0.0977382 0.00481837 0)
(0.09619 0.00633691 0)
(0.0965994 0.00709014 0)
(0.0949852 0.009646 0)
(0.0950157 0.0110525 0)
(0.0945653 0.0140062 0)
(0.0936185 0.0181491 0)
(0.100205 0.00011571 0)
(0.0996129 0.000346067 0)
(0.100353 0.000515187 0)
(0.100689 0.000651928 0)
(0.10014 0.000811502 0)
(0.100354 0.000977381 0)
(0.10096 0.00109843 0)
(0.101043 0.00115078 0)
(0.100881 0.00114716 0)
(0.100892 0.00111757 0)
(0.100973 0.00109173 0)
(0.100956 0.00109055 0)
(0.100861 0.0011246 0)
(0.100753 0.00119811 0)
(0.100631 0.00131412 0)
(0.100494 0.00147493 0)
(0.10031 0.00168631 0)
(0.100143 0.00195111 0)
(0.0998579 0.00228516 0)
(0.0997172 0.0026858 0)
(0.0992265 0.00319942 0)
(0.0992497 0.00378072 0)
(0.0983812 0.00459209 0)
(0.0987536 0.00538445 0)
(0.0974611 0.0067314 0)
(0.0981461 0.00773805 0)
(0.0968456 0.00990965 0)
(0.0975567 0.0113185 0)
(0.0968234 0.0143494 0)
(0.097891 0.016439 0)
(0.100205 8.65808e-05 0)
(0.0995963 0.000265828 0)
(0.100314 0.00039746 0)
(0.100628 0.000502376 0)
(0.100063 0.000635137 0)
(0.100263 0.000792752 0)
(0.100863 0.000931174 0)
(0.100952 0.00102032 0)
(0.100808 0.00106209 0)
(0.100846 0.00107766 0)
(0.100962 0.00109205 0)
(0.100982 0.00112444 0)
(0.100927 0.00118666 0)
(0.10086 0.00128501 0)
(0.100782 0.00142374 0)
(0.100693 0.00160751 0)
(0.100562 0.00184073 0)
(0.100457 0.0021316 0)
(0.100242 0.00248558 0)
(0.100187 0.00292083 0)
(0.099799 0.00344006 0)
(0.0999401 0.00407392 0)
(0.099236 0.0048418 0)
(0.0997439 0.00572305 0)
(0.0987554 0.00689358 0)
(0.0995057 0.00808033 0)
(0.0988241 0.00973327 0)
(0.0992835 0.011585 0)
(0.0997618 0.0133185 0)
(0.0998849 0.0165227 0)
(0.100205 6.52742e-05 0)
(0.0995896 0.000209601 0)
(0.100296 0.0003173 0)
(0.100598 0.000401218 0)
(0.100021 0.000512744 0)
(0.100212 0.000657772 0)
(0.100808 0.000800076 0)
(0.100902 0.000908253 0)
(0.100774 0.000978197 0)
(0.100836 0.00102463 0)
(0.10098 0.00106867 0)
(0.101034 0.00112772 0)
(0.101016 0.00121321 0)
(0.100988 0.00133225 0)
(0.100953 0.00148944 0)
(0.100911 0.00169062 0)
(0.100834 0.0019391 0)
(0.100788 0.00224638 0)
(0.100647 0.00261014 0)
(0.100669 0.00306246 0)
(0.100389 0.00357484 0)
(0.100624 0.00422987 0)
(0.10009 0.0049457 0)
(0.100699 0.00585808 0)
(0.0999652 0.00687741 0)
(0.100836 0.00809985 0)
(0.10044 0.00947325 0)
(0.101147 0.0111828 0)
(0.101706 0.0128262 0)
(0.102403 0.0149919 0)
(0.100205 4.69717e-05 0)
(0.0995864 0.000159061 0)
(0.100288 0.000240832 0)
(0.100583 0.00030036 0)
(0.1 0.000387673 0)
(0.100189 0.000516214 0)
(0.100786 0.000657101 0)
(0.100888 0.000778425 0)
(0.100774 0.000870717 0)
(0.100857 0.000943292 0)
(0.101027 0.00101355 0)
(0.101111 0.00109667 0)
(0.101126 0.00120288 0)
(0.101134 0.00133946 0)
(0.101139 0.00151131 0)
(0.101143 0.00172482 0)
(0.101117 0.00198205 0)
(0.101128 0.00229678 0)
(0.101059 0.00266085 0)
(0.101149 0.00311559 0)
(0.100977 0.00361058 0)
(0.101283 0.00426143 0)
(0.10092 0.00492037 0)
(0.101585 0.00582297 0)
(0.101107 0.00669857 0)
(0.102011 0.00792174 0)
(0.101939 0.00898171 0)
(0.102653 0.0107123 0)
(0.103561 0.0118149 0)
(0.104212 0.0140268 0)
(0.100205 2.96628e-05 0)
(0.0995857 0.000110803 0)
(0.100286 0.000167352 0)
(0.10058 0.000203 0)
(0.0999973 0.000265795 0)
(0.100188 0.000375448 0)
(0.10079 0.000510046 0)
(0.100902 0.000638535 0)
(0.100803 0.000747514 0)
(0.100905 0.000841366 0)
(0.101099 0.000933539 0)
(0.101208 0.00103679 0)
(0.101253 0.0011601 0)
(0.101295 0.00131048 0)
(0.101337 0.00149259 0)
(0.101382 0.00171273 0)
(0.101405 0.00197238 0)
(0.101467 0.0022863 0)
(0.101467 0.00264286 0)
(0.101615 0.00308682 0)
(0.101547 0.00355724 0)
(0.101905 0.00418212 0)
(0.101704 0.00478541 0)
(0.1024 0.00564149 0)
(0.102144 0.00640105 0)
(0.103074 0.00755202 0)
(0.103218 0.00841259 0)
(0.104017 0.00997319 0)
(0.105024 0.0108954 0)
(0.105816 0.0126541 0)
(0.100205 1.25525e-05 0)
(0.099587 6.21159e-05 0)
(0.10029 9.3035e-05 0)
(0.100588 0.000104411 0)
(0.100009 0.000141193 0)
(0.100205 0.000228763 0)
(0.100816 0.000353134 0)
(0.10094 0.000484832 0)
(0.100857 0.000606942 0)
(0.100976 0.000718797 0)
(0.101191 0.000829944 0)
(0.101324 0.000950618 0)
(0.101394 0.00108807 0)
(0.101465 0.00124847 0)
(0.101541 0.00143626 0)
(0.101622 0.00165784 0)
(0.101691 0.00191428 0)
(0.101798 0.0022202 0)
(0.101861 0.00256215 0)
(0.102058 0.00298504 0)
(0.102086 0.0034245 0)
(0.102482 0.00400907 0)
(0.102429 0.00455516 0)
(0.103134 0.00534524 0)
(0.103076 0.00599901 0)
(0.104004 0.00705722 0)
(0.10433 0.00773835 0)
(0.105171 0.00915152 0)
(0.106253 0.00984471 0)
(0.107133 0.011364 0)
(0.100205 -5.51782e-06 0)
(0.0995901 1.06886e-05 0)
(0.1003 1.48315e-05 0)
(0.100605 1.50243e-06 0)
(0.100034 1.1847e-05 0)
(0.100239 7.65245e-05 0)
(0.100863 0.000188345 0)
(0.101002 0.000320395 0)
(0.100934 0.000452589 0)
(0.10107 0.000579974 0)
(0.101302 0.00070771 0)
(0.101454 0.000842895 0)
(0.101546 0.000991063 0)
(0.101641 0.0011577 0)
(0.101746 0.00134699 0)
(0.10186 0.00156518 0)
(0.101968 0.00181307 0)
(0.102114 0.00210433 0)
(0.102233 0.0024257 0)
(0.102472 0.00281921 0)
(0.102584 0.00322327 0)
(0.103008 0.00375661 0)
(0.103086 0.00424651 0)
(0.103787 0.0049551 0)
(0.103899 0.0055191 0)
(0.104812 0.00645938 0)
(0.105274 0.00700885 0)
(0.106151 0.00823785 0)
(0.107259 0.00878629 0)
(0.108202 0.0100333 0)
(0.100205 -2.60356e-05 0)
(0.0995959 -4.87936e-05 0)
(0.100316 -7.57786e-05 0)
(0.100635 -0.000116818 0)
(0.100077 -0.000136613 0)
(0.100296 -9.93042e-05 0)
(0.100934 -2.88692e-06 0)
(0.101088 0.00012936 0)
(0.101034 0.000273922 0)
(0.101183 0.000419895 0)
(0.101429 0.000565556 0)
(0.101596 0.000714775 0)
(0.101704 0.000871976 0)
(0.101819 0.00104213 0)
(0.101948 0.00122928 0)
(0.102088 0.00143956 0)
(0.10223 0.00167403 0)
(0.10241 0.00194523 0)
(0.102578 0.00224107 0)
(0.10285 0.00259902 0)
(0.103037 0.00296367 0)
(0.103479 0.0034389 0)
(0.103669 0.00387265 0)
(0.104358 0.00449229 0)
(0.104612 0.00497717 0)
(0.105502 0.00578988 0)
(0.106069 0.00623529 0)
(0.106968 0.0072811 0)
(0.108076 0.00770902 0)
(0.109073 0.00872531 0)
(0.100205 -4.95344e-05 0)
(0.0996035 -0.000114155 0)
(0.100339 -0.000168977 0)
(0.100677 -0.000232416 0)
(0.100137 -0.000278819 0)
(0.100374 -0.00026699 0)
(0.101033 -0.000183286 0)
(0.101207 -4.88911e-05 0)
(0.101168 0.000108082 0)
(0.101326 0.000267364 0)
(0.101577 0.000424121 0)
(0.101752 0.000581104 0)
(0.10187 0.00074165 0)
(0.101997 0.000910043 0)
(0.102143 0.00109005 0)
(0.102304 0.0012875 0)
(0.102473 0.00150368 0)
(0.102681 0.0017499 0)
(0.102889 0.00201582 0)
(0.103188 0.00233344 0)
(0.103437 0.00265546 0)
(0.103892 0.0030686 0)
(0.104176 0.00344602 0)
(0.10485 0.00397418 0)
(0.10522 0.00438715 0)
(0.106082 0.00507027 0)
(0.106728 0.00543342 0)
(0.107638 0.00629919 0)
(0.108733 0.00663449 0)
(0.109761 0.00744696 0)
(0.100204 -8.3491e-05 0)
(0.0996232 -0.000213999 0)
(0.100386 -0.000315639 0)
(0.100751 -0.000415582 0)
(0.100236 -0.000498955 0)
(0.100496 -0.000514966 0)
(0.101174 -0.000439272 0)
(0.101361 -0.000294439 0)
(0.101324 -0.000116682 0)
(0.101479 6.74281e-05 0)
(0.10173 0.000250097 0)
(0.101907 0.000425686 0)
(0.102031 0.00059414 0)
(0.102167 0.000760983 0)
(0.102325 0.000931798 0)
(0.102502 0.00111321 0)
(0.102693 0.0013074 0)
(0.102921 0.00152471 0)
(0.103163 0.00175704 0)
(0.103484 0.00203083 0)
(0.103784 0.00230754 0)
(0.104247 0.0026568 0)
(0.104607 0.00297728 0)
(0.105265 0.00341527 0)
(0.105726 0.00376026 0)
(0.106561 0.00431859 0)
(0.107266 0.00461192 0)
(0.108178 0.00531022 0)
(0.109251 0.00556985 0)
(0.110297 0.00620466 0)
(0.100203 -0.000115453 0)
(0.0996446 -0.000292137 0)
(0.100446 -0.000408577 0)
(0.100851 -0.000520579 0)
(0.100374 -0.000625874 0)
(0.100672 -0.000663404 0)
(0.10138 -0.000597276 0)
(0.10158 -0.000448611 0)
(0.101542 -0.00025797 0)
(0.101691 -5.76667e-05 0)
(0.101932 0.000132981 0)
(0.102093 0.00030457 0)
(0.102204 0.000462731 0)
(0.102334 0.00061523 0)
(0.102495 0.000767639 0)
(0.10268 0.000926048 0)
(0.102885 0.00109287 0)
(0.103129 0.00127687 0)
(0.103397 0.00147199 0)
(0.103734 0.00169912 0)
(0.104074 0.00192834 0)
(0.104543 0.00221293 0)
(0.104963 0.00247592 0)
(0.105604 0.00282654 0)
(0.106137 0.00310603 0)
(0.106946 0.00354731 0)
(0.107693 0.00377785 0)
(0.108603 0.00432379 0)
(0.109652 0.00451937 0)
(0.110704 0.00500194 0)
(0.100203 -0.000216048 0)
(0.0997073 -0.000537195 0)
(0.100565 -0.000709987 0)
(0.101016 -0.000873459 0)
(0.100584 -0.0010285 0)
(0.100917 -0.00107632 0)
(0.10164 -0.000979126 0)
(0.101834 -0.000776235 0)
(0.101776 -0.000522072 0)
(0.101893 -0.000266818 0)
(0.102099 -4.26894e-05 0)
(0.102239 0.000147293 0)
(0.102341 0.000311107 0)
(0.102472 0.000456615 0)
(0.102636 0.000592094 0)
(0.102827 0.000726004 0)
(0.103043 0.000862932 0)
(0.1033 0.00101092 0)
(0.103587 0.00116626 0)
(0.103936 0.00134474 0)
(0.104306 0.00152494 0)
(0.104779 0.00174487 0)
(0.105244 0.00195035 0)
(0.105871 0.00221665 0)
(0.106458 0.00243302 0)
(0.107243 0.00276425 0)
(0.108021 0.00293766 0)
(0.108924 0.00334481 0)
(0.10995 0.0034838 0)
(0.111002 0.00383604 0)
(0.100195 -0.000256343 0)
(0.0998524 -0.00058726 0)
(0.100833 -0.000737656 0)
(0.101351 -0.000921128 0)
(0.101001 -0.00109368 0)
(0.101399 -0.00113418 0)
(0.102132 -0.00101951 0)
(0.102289 -0.000797604 0)
(0.102169 -0.000531703 0)
(0.102212 -0.000282459 0)
(0.102352 -7.78874e-05 0)
(0.102439 8.46073e-05 0)
(0.102501 0.000215221 0)
(0.102603 0.000326823 0)
(0.102752 0.000428242 0)
(0.102938 0.000526814 0)
(0.103159 0.000626825 0)
(0.103422 0.000734101 0)
(0.103722 0.000846569 0)
(0.10408 0.000974183 0)
(0.104472 0.00110436 0)
(0.104948 0.00125871 0)
(0.105445 0.00140806 0)
(0.106063 0.00159051 0)
(0.106687 0.00174879 0)
(0.107455 0.00197402 0)
(0.108252 0.00209589 0)
(0.109151 0.00237604 0)
(0.110155 0.00246342 0)
(0.111209 0.00269738 0)
(0.10019 -0.000754949 0)
(0.0999803 -0.00130157 0)
(0.101001 -0.00136084 0)
(0.101479 -0.00164142 0)
(0.101059 -0.00185513 0)
(0.101347 -0.00179396 0)
(0.101948 -0.00154152 0)
(0.101991 -0.00117654 0)
(0.101788 -0.000766205 0)
(0.101775 -0.000413491 0)
(0.101882 -0.000168087 0)
(0.101956 -9.06963e-06 0)
(0.102022 0.000101886 0)
(0.102137 0.000186485 0)
(0.102299 0.000255571 0)
(0.102499 0.000318183 0)
(0.102735 0.000379683 0)
(0.103013 0.000444637 0)
(0.103331 0.000512393 0)
(0.103706 0.000588509 0)
(0.10412 0.000666843 0)
(0.104614 0.000757027 0)
(0.105133 0.000848333 0)
(0.105779 0.000950478 0)
(0.106404 0.00105125 0)
(0.107233 0.00117229 0)
(0.107973 0.00125351 0)
(0.108987 0.00140314 0)
(0.109865 0.00145862 0)
(0.11107 0.00157124 0)
(0.099132 -0.000659448 0)
(0.0981388 -0.00106056 0)
(0.0978523 -0.00110969 0)
(0.096398 -0.00135949 0)
(0.0939891 -0.00150328 0)
(0.0923962 -0.00139764 0)
(0.0912798 -0.00114626 0)
(0.0900009 -0.000830319 0)
(0.0889728 -0.000514775 0)
(0.0884908 -0.000274543 0)
(0.0883349 -0.000128213 0)
(0.0882759 -4.20194e-05 0)
(0.0882822 1.53654e-05 0)
(0.0883677 5.4141e-05 0)
(0.0885157 8.11617e-05 0)
(0.0887079 0.000102983 0)
(0.0889387 0.000123213 0)
(0.0892117 0.000144031 0)
(0.0895266 0.00016547 0)
(0.0898916 0.000189453 0)
(0.0903008 0.000213882 0)
(0.0907761 0.000242104 0)
(0.091289 0.000270252 0)
(0.0919022 0.000301186 0)
(0.0925168 0.000333051 0)
(0.0933013 0.000365784 0)
(0.0940107 0.000395395 0)
(0.0949752 0.000430328 0)
(0.0957828 0.000451553 0)
(0.0969211 0.00047105 0)
(0.0457234 0.0148847 0)
(0.0692646 0.0303806 0)
(0.0653087 0.016331 0)
(0.0903948 0.0537003 9.81688e-22)
(0.0599272 0.0145544 6.80938e-22)
(0.124042 0.0502223 0)
(0.0606531 0.0413778 1.18487e-22)
(0.124284 0.0407867 -2.65649e-22)
(0.124318 0.0430046 8.26053e-22)
(0.125293 0.0586015 0)
(0.0720074 0.0231101 0)
(0.0890205 0.0328105 0)
(0.0865854 0.0366725 0)
(0.0924879 0.0387292 0)
(0.11149 0.0447543 0)
(0.0978406 0.0533522 1.94216e-22)
(0.115059 0.0492096 -1.15228e-23)
(0.135917 0.0382193 -1.99266e-22)
(0.136643 0.0703176 -7.87246e-22)
(0.130492 0.062311 -8.06108e-22)
(0.0854636 0.0209897 0)
(0.0857523 0.0306804 0)
(0.0971611 0.0263771 0)
(0.0960083 0.0346644 0)
(0.104797 0.0375846 0)
(0.108236 0.0341599 -1.94217e-22)
(0.125677 0.0471382 1.15235e-23)
(0.124541 0.0201536 1.99264e-22)
(0.125586 0.0524413 4.33447e-22)
(0.163605 0.0495398 8.06409e-22)
(0.0883673 0.0235173 -4.87452e-22)
(0.095327 0.0251969 0)
(0.0992894 0.0311613 -3.75299e-22)
(0.100728 0.0332539 -3.10045e-22)
(0.111351 0.0347091 -2.1898e-22)
(0.111565 0.037382 0)
(0.124098 0.0434413 0)
(0.129082 0.0330243 1.62619e-22)
(0.128116 0.0369452 2.89381e-22)
(0.158275 0.0370798 4.41603e-22)
(0.0953842 0.0194902 4.87455e-22)
(0.0969345 0.0263193 0)
(0.101946 0.0250205 3.753e-22)
(0.105532 0.0276445 3.10046e-22)
(0.111096 0.0330051 2.18981e-22)
(0.115409 0.0273397 0)
(0.123821 0.0328457 0)
(0.130878 0.0240946 -1.62626e-22)
(0.134063 0.0328782 -2.89387e-22)
(0.146581 0.0246906 -4.41606e-22)
(0.0977662 0.0205871 0)
(0.100798 0.0218876 -3.64634e-22)
(0.105851 0.0248505 0)
(0.107546 0.0271715 -2.54155e-22)
(0.114167 0.0271363 0)
(0.118277 0.0285011 0)
(0.124696 0.0311275 0)
(0.129004 0.0248165 -1.03917e-22)
(0.133385 0.0252416 0)
(0.144453 0.0226719 0)
(0.101274 0.0177881 3.69237e-22)
(0.103727 0.0210882 7.01287e-22)
(0.106831 0.0219844 2.89839e-22)
(0.110772 0.0223193 2.54155e-22)
(0.115005 0.0254573 0)
(0.118867 0.0224564 -9.70318e-23)
(0.124792 0.0238557 0)
(0.130132 0.020167 1.03918e-22)
(0.133199 0.0205323 0)
(0.138829 0.014035 0)
(0.103578 0.0171327 -3.69239e-22)
(0.10567 0.0185678 -3.36653e-22)
(0.109483 0.0197236 -2.8984e-22)
(0.112104 0.0211799 0)
(0.116372 0.0210951 0)
(0.12033 0.0212722 9.70321e-23)
(0.124968 0.0216467 0)
(0.128429 0.0183277 0)
(0.13265 0.0170451 0)
(0.136787 0.0136402 0)
(0.105532 0.0152532 0)
(0.107801 0.0167033 -2.93894e-22)
(0.110458 0.0177753 0)
(0.113635 0.0177416 -2.10721e-22)
(0.11714 0.0188324 0)
(0.120491 0.0177167 0)
(0.124614 0.0173697 -3.98746e-23)
(0.128172 0.0148612 2.20481e-23)
(0.131033 0.0135236 0)
(0.133919 0.00913136 1.26258e-22)
(0.107211 0.0138258 0)
(0.10913 0.0148726 2.93894e-22)
(0.111834 0.0154719 0)
(0.114535 0.0159732 2.10721e-22)
(0.117755 0.0160159 0)
(0.120881 0.0156155 0)
(0.124336 0.0150674 3.98747e-23)
(0.126966 0.0129908 -2.20482e-23)
(0.129973 0.0113025 0)
(0.132097 0.00843177 -1.26258e-22)
(0.108479 0.0122509 1.43995e-22)
(0.110393 0.0130151 0)
(0.112627 0.0136139 0)
(0.115235 0.0136085 9.87261e-23)
(0.118133 0.0137951 0)
(0.120825 0.0131449 0)
(0.123734 0.0123627 0)
(0.126227 0.0105477 9.56958e-24)
(0.128527 0.00905668 0)
(0.130245 0.00610373 0)
(0.109557 0.010742 -5.94097e-24)
(0.111287 0.0113542 0)
(0.113349 0.011687 1.13884e-22)
(0.115717 0.0117966 -1.84649e-24)
(0.118329 0.0117012 0)
(0.120741 0.0111561 0)
(0.123247 0.0104029 3.80997e-23)
(0.125281 0.00891992 -9.5696e-24)
(0.127423 0.00744871 -9.64575e-25)
(0.128809 0.0052767 -1.74169e-23)
(0.110384 0.0092841 -4.74912e-24)
(0.112019 0.0097126 0)
(0.113858 0.0099836 -2.72086e-24)
(0.116033 0.00997301 -1.07753e-24)
(0.118387 0.00982839 7.86146e-23)
(0.12052 0.00926707 -6.09236e-23)
(0.122666 0.00851008 5.13783e-24)
(0.12452 0.00721234 2.52742e-23)
(0.126305 0.00595889 9.18604e-24)
(0.127523 0.00398098 1.07e-23)
(0.111044 0.00787418 -1.33306e-22)
(0.112565 0.00819152 0)
(0.114253 0.00836126 -1.11163e-22)
(0.116238 0.00834704 -9.58025e-23)
(0.118349 0.00813549 -7.86147e-23)
(0.120271 0.00762071 1.24577e-22)
(0.122161 0.0069403 -4.32376e-23)
(0.123785 0.00587441 -2.52742e-23)
(0.12539 0.00475827 -8.22147e-24)
(0.126456 0.00321174 6.71695e-24)
(0.111544 0.00652734 0)
(0.11298 0.00674171 0)
(0.11454 0.00686075 0)
(0.116351 0.00681434 0)
(0.118252 0.00658335 0)
(0.119997 0.00611495 -6.36532e-23)
(0.121678 0.00550327 0)
(0.123162 0.00460672 0)
(0.124577 0.00367775 0)
(0.125563 0.00237673 0)
(0.111917 0.00523591 0)
(0.113281 0.00537749 0)
(0.114743 0.0054478 0)
(0.116401 0.00538901 0)
(0.118123 0.0051588 0)
(0.119729 0.00475321 -3.42373e-23)
(0.121259 0.00423323 0)
(0.122621 0.0035119 0)
(0.12391 0.00274306 0)
(0.124828 0.00172329 0)
(0.112183 0.00399602 0)
(0.113489 0.00408033 0)
(0.114876 0.00411045 5.29375e-23)
(0.116402 0.00404258 0)
(0.117986 0.00382295 4.15295e-23)
(0.119477 0.00348659 3.42373e-23)
(0.120902 0.00305252 0)
(0.122164 0.00248395 2.22804e-23)
(0.123359 0.00187421 0)
(0.124223 0.00108325 0)
(0.112354 0.00279657 0)
(0.1136 0.00284154 0)
(0.114927 0.00283606 -5.29376e-23)
(0.116316 0.00277187 0)
(0.117804 0.0025761 -4.15296e-23)
(0.119159 0.00230995 0)
(0.120532 0.00197581 0)
(0.121652 0.00155244 -2.22804e-23)
(0.122809 0.00109494 0)
(0.123546 0.000528871 0)
(0.112054 0.00161766 -1.52215e-23)
(0.113105 0.00162131 -1.42899e-23)
(0.114274 0.00158029 -1.32185e-23)
(0.115396 0.00151005 0)
(0.116731 0.00134299 -1.06415e-23)
(0.117764 0.00114603 0)
(0.119061 0.000881504 -7.69486e-24)
(0.119761 0.000610802 0)
(0.120868 0.000274539 -4.67175e-24)
(0.121075 -7.67293e-05 -3.23477e-24)
(0.0977925 0.000460857 1.52199e-23)
(0.0986453 0.000417057 1.42883e-23)
(0.0995021 0.000359316 1.32169e-23)
(0.100255 0.000281706 0)
(0.101051 0.000169478 1.064e-23)
(0.101507 4.5075e-05 0)
(0.101981 -0.000105505 7.6937e-24)
(0.101857 -0.000215949 0)
(0.10191 -0.000387019 4.67095e-24)
(0.101038 -0.000502104 3.23419e-24)
(-0.0112699 -0.00388102 0)
(-0.0336107 0.00380129 0)
(-0.0614205 0.00735985 0)
(-0.076645 0.00165403 0)
(-0.0615251 -0.00644368 0)
(-0.0354683 -0.00783716 0)
(-0.0104135 -0.00740401 0)
(0.0114495 -0.00586807 0)
(0.028216 -0.00429818 0)
(0.0410361 -0.00300067 0)
(0.0504035 -0.00202944 0)
(0.0571363 -0.00134128 0)
(0.0619323 -0.000878819 0)
(0.0653525 -0.000580949 0)
(0.0678185 -0.000393252 0)
(0.0696292 -0.000275064 0)
(0.0709874 -0.000199473 0)
(0.0720281 -0.000149734 0)
(0.0728409 -0.000115767 0)
(0.0734864 -9.16569e-05 0)
(0.074006 -7.39043e-05 0)
(0.0744288 -6.03641e-05 0)
(0.0747757 -4.97347e-05 0)
(0.0750622 -4.12464e-05 0)
(0.0753 -3.43904e-05 0)
(0.0754982 -2.87882e-05 0)
(0.075664 -2.41573e-05 0)
(0.0758031 -2.03185e-05 0)
(0.0759201 -1.71134e-05 0)
(0.0760187 -1.4438e-05 0)
(0.0761018 -1.22068e-05 0)
(0.0761721 -1.0306e-05 0)
(0.0762312 -8.87428e-06 0)
(0.0762824 -7.39061e-06 0)
(0.0763239 -6.7464e-06 0)
(0.0763638 -5.32362e-06 0)
(0.07639 -5.33228e-06 0)
(0.0764261 -4.18476e-06 0)
(0.076438 -4.27906e-06 0)
(0.076475 -4.05626e-06 0)
(-0.002102 0.0346105 0)
(-0.0317233 0.0301093 0)
(-0.0686165 0.0259615 0)
(-0.0863303 0.00256255 0)
(-0.0634984 -0.0238673 0)
(-0.0326865 -0.0285771 0)
(-0.00464388 -0.0266158 0)
(0.0189191 -0.021707 0)
(0.0372021 -0.0168231 0)
(0.0516655 -0.0126658 0)
(0.0627733 -0.00934634 0)
(0.071193 -0.00680856 0)
(0.0775224 -0.00493994 0)
(0.0822791 -0.00360219 0)
(0.0858777 -0.00265864 0)
(0.0886302 -0.00199458 0)
(0.090763 -0.00152361 0)
(0.0924373 -0.00118458 0)
(0.0937677 -0.000935743 0)
(0.0948365 -0.000749304 0)
(0.0957033 -0.000606816 0)
(0.0964119 -0.000495897 0)
(0.096995 -0.000408157 0)
(0.0974774 -0.000337877 0)
(0.0978782 -0.000281021 0)
(0.0982126 -0.000234628 0)
(0.0984923 -0.000196485 0)
(0.0987271 -0.000164951 0)
(0.0989245 -0.00013879 0)
(0.099091 -0.000116925 0)
(0.099231 -9.88772e-05 0)
(0.0993501 -8.3253e-05 0)
(0.0994494 -7.13708e-05 0)
(0.0995365 -5.91983e-05 0)
(0.099605 -5.26671e-05 0)
(0.0996734 -4.21723e-05 0)
(0.0997155 -3.92776e-05 0)
(0.0997755 -3.12484e-05 0)
(0.099795 -2.97259e-05 0)
(0.0998531 -2.43728e-05 0)
(-0.0081126 0.0266534 0)
(-0.0288669 0.0439856 0)
(-0.0757227 0.0496621 0)
(-0.0879337 0.00025667 0)
(-0.0609883 -0.0474625 0)
(-0.0237351 -0.0509979 0)
(0.00603783 -0.0449791 0)
(0.0272904 -0.0359071 0)
(0.0426069 -0.0279399 0)
(0.0550161 -0.0213132 0)
(0.064982 -0.0159773 0)
(0.0727996 -0.0118547 0)
(0.0788207 -0.00878225 0)
(0.0834395 -0.00654553 0)
(0.0870037 -0.00493341 0)
(0.0897821 -0.00377045 0)
(0.0919713 -0.00292434 0)
(0.0937142 -0.00230047 0)
(0.0951147 -0.00183302 0)
(0.0962494 -0.00147681 0)
(0.0971756 -0.00120095 0)
(0.0979363 -0.00098416 0)
(0.0985644 -0.000811602 0)
(0.0990854 -0.000672756 0)
(0.099519 -0.000560035 0)
(0.0998813 -0.000467829 0)
(0.100185 -0.000391927 0)
(0.10044 -0.000329107 0)
(0.100654 -0.000276979 0)
(0.100835 -0.000233378 0)
(0.100987 -0.000197407 0)
(0.101117 -0.000166249 0)
(0.101225 -0.000142418 0)
(0.10132 -0.00011823 0)
(0.101394 -0.000104698 0)
(0.101469 -8.41874e-05 0)
(0.101514 -7.76159e-05 0)
(0.101579 -6.18258e-05 0)
(0.1016 -5.84588e-05 0)
(0.101663 -4.66817e-05 0)
(-0.00283207 0.0536522 0)
(-0.0340364 0.0749836 0)
(-0.0664028 0.0672879 0)
(-0.0655763 -0.00302427 0)
(-0.0452462 -0.0744376 0)
(-0.0068664 -0.0797802 0)
(0.0253908 -0.063243 0)
(0.0455015 -0.0472973 0)
(0.0559377 -0.03654 0)
(0.0636349 -0.0285244 0)
(0.0704515 -0.0218891 0)
(0.0763811 -0.0165146 0)
(0.0812557 -0.0123888 0)
(0.0851399 -0.00933564 0)
(0.0882146 -0.00710998 0)
(0.0906608 -0.00548716 0)
(0.0926234 -0.00429269 0)
(0.0942108 -0.00340117 0)
(0.095504 -0.00272544 0)
(0.0965638 -0.0022053 0)
(0.0974369 -0.00179911 0)
(0.0981593 -0.00147781 0)
(0.0987594 -0.00122082 0)
(0.0992594 -0.00101328 0)
(0.0996772 -0.000844301 0)
(0.100027 -0.000705773 0)
(0.100321 -0.000591578 0)
(0.100569 -0.000496967 0)
(0.100777 -0.000418407 0)
(0.100953 -0.000352642 0)
(0.101101 -0.000298369 0)
(0.101228 -0.00025132 0)
(0.101333 -0.000215226 0)
(0.101426 -0.000178799 0)
(0.101498 -0.000157956 0)
(0.101571 -0.000127363 0)
(0.101615 -0.000116843 0)
(0.101679 -9.31086e-05 0)
(0.1017 -8.78458e-05 0)
(0.10176 -6.92353e-05 0)
(-0.0319021 0.0662044 0)
(-0.00261974 0.0795317 0)
(-0.0338284 0.0740783 0)
(-0.0178628 -0.012761 0)
(-0.00292672 -0.0930829 0)
(0.0148435 -0.108591 0)
(0.0376931 -0.0855791 0)
(0.0601076 -0.0580939 0)
(0.0708392 -0.0410025 0)
(0.0752722 -0.0317298 0)
(0.0783356 -0.0251529 0)
(0.0814812 -0.0196145 0)
(0.084594 -0.0150684 0)
(0.087402 -0.0115439 0)
(0.0898016 -0.00890091 0)
(0.091806 -0.00693834 0)
(0.0934689 -0.00547404 0)
(0.0948473 -0.00436835 0)
(0.0959916 -0.00352138 0)
(0.0969431 -0.00286321 0)
(0.0977361 -0.00234495 0)
(0.0983983 -0.00193212 0)
(0.0989523 -0.00159999 0)
(0.0994165 -0.00133052 0)
(0.0998063 -0.00111028 0)
(0.100134 -0.000929205 0)
(0.10041 -0.000779601 0)
(0.100643 -0.000655437 0)
(0.100839 -0.000552188 0)
(0.101006 -0.000465643 0)
(0.101146 -0.000394132 0)
(0.101266 -0.000332112 0)
(0.101365 -0.00028439 0)
(0.101454 -0.00023642 0)
(0.101522 -0.000208622 0)
(0.101592 -0.000168462 0)
(0.101634 -0.000154218 0)
(0.101694 -0.000122853 0)
(0.101714 -0.00011579 0)
(0.101771 -9.05881e-05 0)
(0.054397 0.0691626 0)
(0.0730516 0.0753915 0)
(0.0257897 0.0867452 0)
(0.0466291 -0.0169471 0)
(0.0629504 -0.0945651 0)
(0.0605601 -0.109389 0)
(0.0487382 -0.0971353 0)
(0.0578417 -0.0716168 0)
(0.0717972 -0.0480331 0)
(0.0806187 -0.0339456 0)
(0.0846842 -0.0260378 0)
(0.086729 -0.0206369 0)
(0.0883748 -0.0163424 0)
(0.0900379 -0.0128735 0)
(0.0916648 -0.0101478 0)
(0.0931579 -0.00804621 0)
(0.0944743 -0.006432 0)
(0.0956106 -0.00518499 0)
(0.0965812 -0.00421231 0)
(0.0974053 -0.00344554 0)
(0.098103 -0.00283492 0)
(0.0986925 -0.00234416 0)
(0.0991904 -0.00194659 0)
(0.0996108 -0.00162226 0)
(0.0999657 -0.00135607 0)
(0.100266 -0.00113648 0)
(0.100519 -0.000954575 0)
(0.100734 -0.000803276 0)
(0.100915 -0.000677241 0)
(0.101069 -0.000571448 0)
(0.101199 -0.000483913 0)
(0.10131 -0.000407953 0)
(0.101403 -0.000349366 0)
(0.101485 -0.000290619 0)
(0.101549 -0.000256288 0)
(0.101613 -0.000207148 0)
(0.101653 -0.000189394 0)
(0.101709 -0.000150816 0)
(0.101727 -0.000142045 0)
(0.101781 -0.000110638 0)
(0.0374231 -0.0133408 0)
(0.0575216 0.0832207 0)
(0.0647739 0.0890997 0)
(0.108065 -0.0306528 0)
(0.108035 -0.10391 0)
(0.102436 -0.0956998 0)
(0.0770458 -0.0798776 0)
(0.0599686 -0.0711612 0)
(0.0631828 -0.0562109 0)
(0.0740226 -0.0409564 0)
(0.0831676 -0.0298152 0)
(0.0882774 -0.0225438 0)
(0.0907647 -0.0176607 0)
(0.0922359 -0.0140459 0)
(0.0934264 -0.0112165 0)
(0.0945227 -0.0089889 0)
(0.0955325 -0.00724535 0)
(0.096439 -0.00588043 0)
(0.0972362 -0.00480496 0)
(0.0979279 -0.00394976 0)
(0.0985233 -0.00326335 0)
(0.0990331 -0.0027078 0)
(0.0994681 -0.00225496 0)
(0.0998385 -0.00188363 0)
(0.100153 -0.00157755 0)
(0.100421 -0.00132415 0)
(0.100648 -0.00111361 0)
(0.100841 -0.00093808 0)
(0.101005 -0.000791577 0)
(0.101144 -0.000668403 0)
(0.101262 -0.000566335 0)
(0.101363 -0.000477686 0)
(0.101448 -0.000409183 0)
(0.101522 -0.00034057 0)
(0.10158 -0.000300241 0)
(0.101639 -0.000242837 0)
(0.101675 -0.000221855 0)
(0.101727 -0.000176617 0)
(0.101744 -0.000166271 0)
(0.101792 -0.00012912 0)
(0.15438 0.00691689 0)
(0.113335 0.0540912 0)
(0.139597 0.0630524 0)
(0.184395 -0.0349403 0)
(0.148088 -0.0976083 0)
(0.110551 -0.0924154 0)
(0.10256 -0.0659181 0)
(0.0918184 -0.0578018 0)
(0.0808377 -0.0554041 0)
(0.0786025 -0.0466425 0)
(0.0831633 -0.0347324 0)
(0.0885221 -0.0248985 0)
(0.0920949 -0.0183305 0)
(0.0940846 -0.014205 0)
(0.0952324 -0.0114308 0)
(0.0960429 -0.00935809 0)
(0.0967398 -0.00770675 0)
(0.0973852 -0.00636171 0)
(0.0979822 -0.00526202 0)
(0.0985226 -0.00436289 0)
(0.0990026 -0.00362704 0)
(0.0994228 -0.00302336 0)
(0.0997872 -0.00252654 0)
(0.100101 -0.00211623 0)
(0.100371 -0.0017762 0)
(0.100601 -0.00149351 0)
(0.100799 -0.00125785 0)
(0.100967 -0.00106084 0)
(0.10111 -0.000896048 0)
(0.101233 -0.000757232 0)
(0.101336 -0.000642019 0)
(0.101426 -0.000541842 0)
(0.1015 -0.000464301 0)
(0.101566 -0.000386652 0)
(0.101618 -0.00034083 0)
(0.10167 -0.000275823 0)
(0.101702 -0.000251873 0)
(0.101748 -0.000200483 0)
(0.101763 -0.000188669 0)
(0.101806 -0.000146198 0)
(0.175276 -0.00280099 0)
(0.158998 0.055172 0)
(0.186043 0.0505511 0)
(0.217235 -0.0257348 0)
(0.168924 -0.0550344 0)
(0.119811 -0.0664579 0)
(0.117804 -0.0685158 0)
(0.131833 -0.0566067 0)
(0.130173 -0.0460545 0)
(0.115655 -0.041649 0)
(0.103248 -0.0368125 0)
(0.0973403 -0.0296032 0)
(0.0956679 -0.0224787 0)
(0.0957179 -0.0169415 0)
(0.096325 -0.0130449 0)
(0.097023 -0.010323 0)