/*--------------------------------*- C++ -*----------------------------------*\
| =========                 |                                                 |
| \\      /  F ield         | OpenFOAM: The Open Source CFD Toolbox           |
|  \\    /   O peration     | Version:  2112                                  |
|   \\  /    A nd           | Website:  www.openfoam.com                      |
|    \\/     M anipulation  |                                                 |
\*---------------------------------------------------------------------------*/
FoamFile
{
    version     2.0;
    format      ascii;
    arch        "LSB;label=32;scalar=64";
    class       volScalarField;
    location    "0.44";
    object      nut;
}
// * * * * * * * * * * * * * * * * * * * * * * * * * * * * * * * * * * * * * //

dimensions      [0 2 -1 0 0 0 0];

internalField   nonuniform List<scalar> 
1880
(
3.47819e-11
3.7752e-12
5.89579e-13
4.88547e-14
1.99135e-14
1.28018e-13
4.79924e-15
6.01437e-15
1.61726e-15
7.94092e-16
1.30454e-14
1.62694e-14
9.8366e-14
3.5283e-14
1.94925e-14
7.94308e-14
1.10345e-13
3.8858e-13
1.97185e-13
2.57731e-13
1.61032e-12
1.51414e-12
3.67398e-12
5.00135e-12
2.2448e-11
7.00689e-11
8.52151e-11
2.56546e-10
3.54698e-11
2.47271e-10
6.85389e-09
6.91601e-09
8.79636e-10
2.64707e-10
8.25981e-11
1.1344e-11
1.47609e-11
1.73287e-12
1.65334e-11
2.1038e-12
6.75222e-11
1.18607e-11
6.01899e-11
2.69772e-11
4.40278e-11
1.12374e-10
5.78018e-11
4.76394e-11
1.20538e-10
1.77698e-11
8.64682e-11
2.38861e-10
9.44762e-11
3.96902e-10
1.01483e-09
3.83087e-10
1.46412e-09
1.03431e-09
1.44778e-09
1.53051e-09
4.39824e-09
6.98217e-10
8.58832e-10
1.09434e-09
4.77127e-11
2.05019e-09
2.63714e-10
2.51574e-09
1.51524e-09
4.18427e-09
2.10294e-10
3.77139e-09
2.89428e-09
2.00149e-09
2.57599e-09
5.937e-09
8.12663e-10
4.73481e-09
2.05037e-09
1.62445e-10
7.52524e-09
1.94174e-09
1.35895e-09
1.01026e-08
2.67331e-09
5.84782e-09
1.30766e-08
6.96148e-09
7.28916e-09
1.17406e-08
1.52766e-09
7.83059e-10
2.63944e-09
2.25946e-10
4.50609e-09
7.5533e-10
9.86406e-09
1.0869e-09
3.58153e-09
9.7927e-10
3.94136e-09
1.86313e-09
2.90833e-08
9.81966e-10
3.21697e-08
3.32228e-09
2.9795e-09
4.64857e-09
6.00513e-10
3.73545e-09
1.58093e-09
7.45758e-09
8.24468e-09
1.3644e-08
1.11176e-08
1.40665e-08
1.78583e-08
1.99036e-08
2.61744e-08
1.4527e-08
2.05869e-09
1.11002e-09
3.62809e-10
2.01099e-09
2.52796e-10
2.37014e-09
5.19551e-10
2.31486e-09
7.0732e-10
3.91335e-09
1.3192e-09
5.42265e-09
3.3278e-08
2.9859e-09
2.99296e-08
3.4462e-09
1.86084e-08
3.91505e-09
5.15399e-09
3.99053e-09
1.23355e-10
7.4321e-09
1.24577e-09
1.26431e-08
4.19377e-09
1.41925e-08
1.23822e-08
1.99976e-08
1.83649e-08
2.65849e-08
1.40327e-10
5.87331e-10
1.03312e-10
1.16937e-10
8.09285e-11
6.2467e-10
7.31955e-10
5.30822e-10
1.92834e-10
2.30581e-11
5.74448e-10
7.0614e-10
6.09785e-10
3.90593e-09
7.41576e-10
2.33209e-09
1.8745e-09
4.19317e-09
2.63446e-09
6.03848e-09
4.0655e-09
8.11373e-09
5.67298e-09
9.46425e-09
8.13477e-09
1.27549e-08
1.31748e-08
1.69206e-08
1.96836e-08
1.93181e-08
2.80726e-10
2.4221e-10
2.38781e-10
5.02175e-10
3.55183e-10
8.30036e-10
5.53956e-10
4.01841e-10
1.14248e-09
5.80295e-11
1.69732e-09
2.23055e-10
2.00288e-09
1.71208e-09
1.83054e-09
1.50673e-09
2.87086e-09
2.63096e-09
3.7821e-09
3.62426e-09
4.96988e-09
6.24538e-09
6.07845e-09
8.94787e-09
9.08068e-09
1.09085e-08
1.29125e-08
1.46585e-08
1.72456e-08
1.97008e-08
2.81863e-10
2.51048e-10
6.08857e-10
8.87002e-12
9.48596e-10
4.07452e-10
1.15476e-09
1.79208e-09
2.42729e-09
9.98904e-10
2.72897e-09
1.90037e-09
3.27475e-09
3.44214e-09
3.19639e-09
2.58623e-09
4.02209e-09
3.96708e-09
4.933e-09
4.34447e-09
6.21436e-09
6.56499e-09
7.44039e-09
8.44432e-09
1.02212e-08
1.11961e-08
1.35751e-08
1.39625e-08
1.83648e-08
1.73145e-08
5.25462e-11
3.04867e-11
7.10094e-10
8.37587e-11
1.31356e-09
4.92673e-10
1.91103e-09
2.41608e-09
3.19915e-09
1.67604e-09
3.0583e-09
1.67694e-09
3.47636e-09
2.48958e-09
3.2866e-09
2.80926e-09
4.22827e-09
4.07231e-09
5.13864e-09
4.53028e-09
6.12603e-09
6.6944e-09
7.51115e-09
8.35794e-09
1.01464e-08
1.07008e-08
1.2875e-08
1.36659e-08
1.65508e-08
1.73561e-08
1.0733e-10
9.66552e-11
8.31009e-10
3.09605e-10
1.74333e-09
1.08958e-09
2.39667e-09
3.01007e-09
3.20734e-09
2.0864e-09
3.07191e-09
2.23378e-09
3.67496e-09
3.11048e-09
3.67647e-09
3.35871e-09
4.57622e-09
4.60064e-09
5.4812e-09
4.97149e-09
6.45126e-09
7.04844e-09
7.99824e-09
8.46618e-09
1.04084e-08
1.09244e-08
1.28624e-08
1.31951e-08
1.62229e-08
1.63817e-08
2.95466e-11
1.61978e-10
9.38046e-10
7.12813e-10
1.78754e-09
1.55748e-09
2.37792e-09
3.25392e-09
2.77867e-09
2.28587e-09
2.80737e-09
2.36361e-09
3.33191e-09
3.32153e-09
3.68877e-09
3.79284e-09
4.5527e-09
4.88598e-09
5.44671e-09
5.28948e-09
6.39098e-09
7.23941e-09
8.05571e-09
8.49797e-09
1.02122e-08
1.08242e-08
1.23678e-08
1.29643e-08
1.51235e-08
1.59357e-08
2.53771e-10
3.8532e-10
1.07694e-09
1.09369e-09
1.91682e-09
1.69821e-09
2.4708e-09
2.73e-09
2.85213e-09
2.31544e-09
2.97074e-09
2.64299e-09
3.63583e-09
3.46506e-09
4.03261e-09
3.89614e-09
4.84351e-09
4.98955e-09
5.66869e-09
5.60858e-09
6.64645e-09
7.3393e-09
8.2797e-09
8.57913e-09
1.01758e-08
1.07506e-08
1.21876e-08
1.26985e-08
1.46598e-08
1.53982e-08
1.87796e-10
4.16342e-10
1.05295e-09
1.27452e-09
1.70577e-09
1.88887e-09
2.14287e-09
2.73387e-09
2.47518e-09
2.48014e-09
2.98603e-09
2.85857e-09
3.42858e-09
3.85145e-09
3.98217e-09
4.15401e-09
4.64934e-09
5.21948e-09
5.69042e-09
5.84581e-09
6.65579e-09
7.56554e-09
8.20694e-09
8.62397e-09
9.92152e-09
1.07114e-08
1.18291e-08
1.24793e-08
1.39643e-08
1.4842e-08
7.67102e-11
3.93484e-10
1.13769e-09
1.26983e-09
1.82533e-09
1.87292e-09
2.25769e-09
2.49825e-09
2.62571e-09
2.70025e-09
3.08551e-09
3.0868e-09
3.74719e-09
3.87288e-09
4.25939e-09
4.3127e-09
4.91031e-09
5.30699e-09
5.87745e-09
6.15615e-09
6.93651e-09
7.58004e-09
8.32838e-09
8.72454e-09
9.91216e-09
1.06529e-08
1.17312e-08
1.23603e-08
1.36942e-08
1.44947e-08
1.57184e-11
1.19298e-10
5.97422e-10
1.17548e-09
1.446e-09
1.87406e-09
1.96512e-09
2.44556e-09
2.35403e-09
2.56464e-09
2.97305e-09
2.99996e-09
3.46295e-09
3.99765e-09
4.12569e-09
4.32537e-09
4.74605e-09
5.40534e-09
5.83149e-09
6.14187e-09
6.85867e-09
7.69838e-09
8.1333e-09
8.66385e-09
9.69007e-09
1.05526e-08
1.14118e-08
1.20527e-08
1.3129e-08
1.39717e-08
6.37327e-11
8.16647e-10
1.32089e-09
1.42004e-09
1.6186e-09
1.84122e-09
1.99769e-09
2.28683e-09
2.46567e-09
2.81625e-09
2.94284e-09
3.12801e-09
3.59527e-09
3.94418e-09
4.16572e-09
4.48673e-09
4.83359e-09
5.41981e-09
5.872e-09
6.34133e-09
7.0384e-09
7.61145e-09
8.1783e-09
8.77593e-09
9.67063e-09
1.04488e-08
1.13143e-08
1.19914e-08
1.29944e-08
1.37763e-08
3.72288e-12
4.82945e-12
1.20759e-10
8.58148e-10
1.20282e-09
1.2602e-09
1.26768e-09
1.5654e-09
1.5627e-09
2.03891e-09
2.44716e-09
2.68006e-09
3.03142e-09
3.87304e-09
3.91479e-09
4.28745e-09
4.7139e-09
5.40116e-09
5.7213e-09
6.154e-09
6.84121e-09
7.54111e-09
7.90232e-09
8.4695e-09
9.30525e-09
9.99665e-09
1.06868e-08
1.13883e-08
1.2335e-08
1.31971e-08
2.08232e-09
2.49797e-09
1.64099e-09
1.62012e-09
1.95743e-09
2.2894e-09
3.10377e-09
3.47131e-09
3.35653e-09
2.91154e-09
1.94672e-09
1.36945e-09
5.42029e-10
3.36353e-10
1.70252e-10
1.12072e-10
3.14837e-11
9.191e-12
2.72148e-12
9.71896e-13
2.73335e-13
4.67326e-12
4.03153e-12
2.64969e-12
2.73977e-12
2.19021e-11
7.84221e-11
2.46378e-10
4.29512e-10
8.02628e-10
5.07779e-09
5.64686e-09
9.25974e-10
1.59055e-10
3.23488e-11
4.22152e-12
8.59258e-13
7.60723e-14
9.34839e-14
4.59065e-13
8.52082e-13
5.93038e-13
1.50315e-12
1.46669e-12
9.67376e-13
1.67674e-12
3.11851e-12
3.8538e-12
3.93709e-12
4.07031e-12
5.06595e-12
5.2565e-12
6.44236e-12
8.87115e-12
8.66249e-12
6.60493e-12
5.26867e-12
4.67874e-12
4.19758e-12
3.22497e-12
3.46801e-11
4.72944e-12
2.39364e-13
1.18546e-14
6.07531e-14
3.30713e-14
1.83281e-15
2.25323e-16
1.24227e-17
4.44134e-16
1.18334e-15
1.32833e-15
6.41703e-16
1.93463e-15
4.57531e-15
8.80411e-15
4.01248e-15
3.49753e-15
1.39357e-14
4.45973e-14
3.72462e-14
1.63853e-14
1.37755e-14
4.07383e-14
8.92036e-14
1.19828e-13
8.39556e-14
3.37341e-14
8.50209e-15
1.1155e-15
5.23973e-09
8.45363e-10
3.8331e-10
2.1914e-10
1.52317e-11
5.00922e-11
1.24938e-11
9.61821e-11
3.93895e-10
2.09618e-09
4.10133e-09
9.33673e-09
5.30979e-09
2.55366e-08
4.06681e-09
1.94296e-09
1.78714e-09
2.73788e-08
1.8724e-10
1.13824e-08
3.05111e-08
2.19738e-08
7.04826e-09
3.89808e-08
5.49383e-08
3.44147e-08
1.07131e-08
8.12708e-08
6.76278e-08
8.68511e-08
4.3354e-08
4.34806e-08
3.37981e-08
1.56239e-08
4.21908e-08
4.72449e-08
2.05845e-08
2.29887e-08
5.42683e-08
3.58625e-08
3.30208e-08
3.22828e-08
3.47011e-08
3.09712e-08
3.27952e-08
4.02978e-08
3.91197e-08
2.73738e-08
3.93656e-08
3.59558e-08
3.59097e-08
2.74228e-08
2.82927e-08
2.72412e-08
2.9579e-08
3.51162e-08
3.55441e-08
3.15778e-08
3.44148e-08
3.11286e-08
2.69189e-08
2.40953e-08
2.74333e-08
2.78373e-08
2.6379e-08
2.99849e-08
3.35765e-08
3.07776e-08
2.90798e-08
2.84951e-08
2.84209e-08
2.27153e-08
2.50025e-08
2.53003e-08
2.61378e-08
2.80782e-08
3.06261e-08
3.16672e-08
2.61578e-08
2.44303e-08
2.33655e-08
2.10473e-08
2.34344e-08
2.43295e-08
2.43643e-08
2.55926e-08
2.78972e-08
2.87711e-08
2.48448e-08
2.37607e-08
2.23781e-08
1.99508e-08
2.2134e-08
2.25181e-08
2.32159e-08
2.43891e-08
2.53811e-08
2.65351e-08
2.34367e-08
2.16679e-08
1.99153e-08
1.88078e-08
2.07789e-08
2.16242e-08
2.1815e-08
2.25874e-08
2.35475e-08
2.43876e-08
2.18376e-08
2.0031e-08
1.87944e-08
1.79431e-08
1.97409e-08
2.03085e-08
2.06974e-08
2.14963e-08
2.17937e-08
2.19509e-08
2.05921e-08
1.90737e-08
1.72305e-08
1.7085e-08
1.87024e-08
1.94398e-08
1.95257e-08
2.01949e-08
2.04705e-08
2.03252e-08
1.90358e-08
1.76074e-08
1.64981e-08
1.64233e-08
1.78028e-08
1.83964e-08
1.86803e-08
1.90145e-08
1.9061e-08
1.87537e-08
1.7966e-08
1.66338e-08
1.53689e-08
1.57133e-08
1.69344e-08
1.75952e-08
1.77219e-08
1.80426e-08
1.79585e-08
1.75121e-08
1.66221e-08
1.54624e-08
1.50195e-08
1.52115e-08
1.62151e-08
1.66764e-08
1.69716e-08
1.70808e-08
1.69872e-08
1.65808e-08
1.59534e-08
1.49162e-08
1.40837e-08
1.42768e-08
1.52471e-08
1.54873e-08
1.59017e-08
1.56209e-08
1.5769e-08
1.48346e-08
1.46043e-08
1.2851e-08
1.09379e-09
6.38139e-10
1.13238e-09
9.82159e-10
1.54456e-09
1.34891e-09
1.876e-09
1.55555e-09
1.83111e-09
1.31857e-09
2.54833e-12
2.18817e-12
5.23312e-13
7.22477e-13
7.74511e-14
1.07181e-12
1.45868e-12
4.10486e-12
5.8413e-12
7.24996e-12
1.52302e-14
1.99027e-15
1.15722e-14
4.80755e-15
1.10562e-15
1.39207e-15
3.71008e-15
2.54161e-14
3.5555e-14
3.42822e-14
5.83837e-08
4.39389e-08
1.06578e-10
2.79372e-09
7.25019e-08
5.36638e-08
2.2106e-08
4.49204e-09
8.17076e-10
2.55212e-10
9.72229e-11
5.01746e-11
5.25718e-11
7.44768e-11
2.48452e-10
6.48704e-10
3.25645e-09
1.44964e-08
5.87133e-08
1.1557e-07
3.12253e-08
4.32758e-09
6.79579e-10
1.26767e-10
2.6924e-11
6.0444e-12
1.48622e-12
5.7307e-13
5.47573e-13
6.13836e-13
3.59652e-13
5.28487e-14
2.4914e-15
1.27596e-13
3.76068e-13
4.46167e-13
2.9718e-13
1.28293e-13
5.96248e-14
2.7375e-14
6.4221e-08
2.74163e-08
1.52551e-08
1.42741e-08
1.55016e-08
1.09046e-07
1.54668e-07
3.20831e-08
1.68398e-07
7.34141e-07
1.09667e-07
3.33591e-10
6.36627e-10
4.56769e-09
1.46271e-08
1.84894e-08
2.90785e-08
5.16538e-08
6.25944e-08
7.01569e-08
7.09144e-08
6.34426e-08
5.05314e-08
3.42235e-08
1.8574e-08
8.03484e-09
2.89894e-09
1.04944e-09
4.70028e-10
3.04807e-10
2.09795e-10
1.26794e-10
4.5796e-11
6.74794e-12
2.8256e-13
1.90062e-12
6.33435e-12
6.56337e-12
5.55215e-12
1.77569e-12
6.73428e-09
7.23207e-07
1.36892e-06
7.07443e-09
7.6905e-08
6.04303e-08
1.42278e-07
7.8059e-07
9.66581e-07
7.37837e-07
1.99231e-07
1.2934e-08
7.56485e-11
9.70919e-12
3.23038e-10
1.47012e-09
5.15171e-09
1.35104e-08
2.61883e-08
4.07719e-08
5.39212e-08
5.83612e-08
5.68391e-08
5.11802e-08
4.11924e-08
2.97144e-08
2.05387e-08
1.49904e-08
1.12055e-08
7.8363e-09
5.72676e-09
4.61588e-09
4.00084e-09
2.36834e-09
5.8849e-10
2.91065e-11
1.23736e-11
4.7206e-11
1.00465e-10
3.40415e-11
8.82392e-08
1.59932e-10
2.66662e-07
7.42438e-08
1.37031e-07
2.93151e-09
7.19891e-07
1.07233e-06
1.23569e-06
1.04114e-06
3.81634e-07
3.866e-08
1.60906e-09
6.40129e-11
5.27457e-12
2.02368e-10
1.71e-09
8.97126e-09
2.04196e-08
3.0696e-08
4.41508e-08
5.38938e-08
5.35983e-08
4.93175e-08
4.24961e-08
3.2565e-08
2.292e-08
1.77322e-08
1.64475e-08
1.49027e-08
1.28417e-08
1.01491e-08
8.36104e-09
6.0858e-09
2.67984e-09
1.73713e-09
1.49274e-09
4.07243e-09
6.2285e-10
1.31822e-09
1.23455e-07
6.69592e-09
1.07694e-09
1.63151e-07
5.87756e-08
1.24705e-07
1.32044e-06
1.34265e-06
1.4459e-06
1.32019e-06
6.87051e-07
9.90171e-08
7.56691e-09
1.20114e-09
7.02323e-10
2.69162e-11
1.86478e-10
4.32836e-09
2.40999e-08
4.28245e-08
4.76409e-08
5.51279e-08
5.4683e-08
4.49232e-08
3.3586e-08
2.18333e-08
1.48639e-08
1.09557e-08
7.43333e-09
3.29906e-09
1.36371e-09
4.27712e-10
2.06562e-12
6.58479e-09
6.81258e-10
1.85224e-10
2.54488e-12
1.65211e-13
5.14806e-12
1.20501e-10
5.49494e-08
7.48629e-08
1.13773e-07
1.77342e-07
5.04413e-08
1.4346e-09
3.19792e-07
8.4908e-07
1.38534e-06
1.4173e-06
8.31735e-07
1.8479e-07
2.74195e-08
7.96632e-09
6.79659e-09
2.35843e-09
3.73706e-13
1.6534e-09
1.70248e-08
5.75982e-08
6.44675e-08
5.42598e-08
3.85318e-08
2.10793e-08
1.25749e-08
5.88247e-09
4.10546e-09
7.43174e-09
8.04835e-09
6.35031e-09
1.81692e-09
3.64636e-11
3.96076e-10
3.59436e-08
3.4463e-08
1.02153e-10
6.44054e-14
4.36766e-12
5.98296e-11
2.39774e-10
5.27569e-09
2.57022e-08
1.84416e-07
2.54289e-07
1.11847e-07
3.05869e-09
5.55771e-07
1.1973e-06
1.66339e-06
1.66031e-06
1.07939e-06
2.97297e-07
6.8229e-08
3.61493e-08
2.84667e-08
1.43583e-08
1.46986e-10
5.46594e-09
2.7058e-08
5.64743e-08
4.99177e-08
2.68067e-08
1.29319e-08
1.24475e-09
4.56226e-10
3.82566e-09
9.49507e-09
1.39016e-08
1.22538e-08
4.89363e-09
5.35205e-09
8.07775e-09
1.20852e-09
4.10108e-11
3.11361e-10
1.36033e-09
8.25628e-10
9.52097e-09
2.53603e-08
4.64845e-09
1.89632e-08
1.61614e-08
3.32938e-10
9.78763e-08
2.09627e-07
8.5049e-08
1.03622e-09
6.03846e-07
1.72724e-06
1.94161e-06
1.57918e-06
6.95586e-07
2.02672e-07
1.06656e-07
7.13844e-08
1.78379e-08
2.42555e-11
1.72838e-08
6.29606e-08
6.67072e-08
4.77757e-08
2.35991e-08
2.4056e-08
2.63775e-08
2.48973e-08
2.36424e-08
2.24773e-08
2.09701e-08
1.71756e-08
9.10618e-09
4.77647e-09
5.08404e-09
9.57342e-09
1.04624e-08
1.07316e-08
7.133e-09
1.60031e-11
6.68222e-10
1.12294e-08
4.13952e-09
4.57373e-07
1.019e-09
8.97729e-09
2.00139e-09
3.51351e-09
5.36079e-13
4.02355e-09
2.05797e-07
1.11275e-06
1.6309e-06
1.50384e-06
8.83027e-07
4.11142e-07
2.05176e-07
9.43581e-08
3.00525e-09
2.03469e-08
7.20132e-08
7.02054e-08
4.78885e-08
4.21934e-08
3.89697e-08
3.83983e-08
3.54772e-08
2.41007e-08
1.45902e-08
1.52825e-08
2.07315e-08
2.01921e-08
1.50769e-08
1.08916e-08
8.07765e-09
7.81681e-09
7.78162e-09
4.53303e-09
3.56123e-09
2.89172e-10
3.03489e-10
1.21005e-10
5.4299e-10
9.61627e-09
1.30675e-07
1.73307e-08
1.21357e-08
1.28065e-09
6.2494e-09
8.60309e-08
5.12358e-07
1.19427e-06
1.48259e-06
1.3832e-06
9.96306e-07
6.70685e-07
4.47297e-07
6.71948e-09
4.54621e-08
6.88659e-08
6.58532e-08
6.67414e-08
5.80788e-08
4.59813e-08
3.84367e-08
3.27611e-08
3.30228e-08
3.18584e-08
2.29444e-08
1.22913e-08
1.31816e-08
1.27674e-08
1.31931e-09
2.62304e-10
1.2591e-10
2.10475e-11
3.59595e-09
7.26601e-09
4.37567e-09
1.89474e-11
1.32549e-08
4.02632e-11
5.21797e-10
3.39212e-08
1.80338e-08
1.76061e-08
2.25464e-08
4.42446e-09
4.1314e-09
2.11579e-07
6.72646e-07
1.03185e-06
1.13523e-06
1.04605e-06
7.19968e-07
2.21807e-08
1.46155e-08
6.45321e-08
6.55269e-08
4.82189e-08
4.96692e-08
4.67082e-08
3.83958e-08
3.55518e-08
3.79116e-08
3.40041e-08
2.71824e-08
2.11384e-08
4.00836e-09
7.48431e-10
6.11142e-09
2.29329e-09
6.97285e-09
4.26665e-08
2.18544e-09
2.07876e-09
4.56798e-09
2.75625e-09
3.55288e-10
3.13139e-09
3.44041e-09
9.51275e-09
6.75673e-09
4.07273e-08
3.17577e-08
3.3065e-08
3.52177e-08
5.59765e-08
4.28648e-08
1.97672e-08
5.1501e-09
5.23708e-09
2.83844e-10
3.25145e-10
3.42912e-08
5.96011e-08
6.69619e-08
6.71293e-08
6.3216e-08
5.4627e-08
4.54643e-08
4.07125e-08
3.62607e-08
3.30772e-08
2.75029e-08
1.58464e-08
1.5903e-08
1.98285e-08
1.42286e-08
2.21482e-09
3.2227e-09
1.02207e-08
1.16007e-08
1.21251e-08
8.18491e-09
1.20951e-09
3.04948e-12
9.87504e-10
1.0187e-08
6.89826e-08
8.86054e-08
3.75436e-12
3.49409e-09
2.96113e-08
2.83385e-08
3.42751e-08
3.6592e-08
3.88526e-08
4.49303e-08
5.27508e-08
5.45513e-08
5.18233e-08
5.52401e-08
6.14029e-08
6.39009e-08
6.08428e-08
5.8627e-08
5.57224e-08
4.92743e-08
4.80103e-08
4.46592e-08
3.87339e-08
3.59105e-08
3.24253e-08
3.01046e-08
2.66393e-08
2.24801e-08
2.11507e-08
1.96191e-08
1.68387e-08
1.51551e-08
1.44927e-08
1.13371e-08
8.19534e-09
6.13391e-09
5.11801e-09
5.37799e-09
5.96085e-09
7.77861e-09
5.40038e-09
4.90077e-09
4.06803e-09
1.77974e-10
3.27235e-08
2.71649e-08
3.27464e-08
3.29676e-08
3.35179e-08
3.94723e-08
4.5794e-08
5.25521e-08
5.13803e-08
5.36496e-08
5.55816e-08
5.23382e-08
4.92242e-08
4.86265e-08
4.77585e-08
4.55759e-08
3.88397e-08
3.90712e-08
3.50969e-08
3.17266e-08
3.02347e-08
2.74377e-08
2.49926e-08
2.25514e-08
2.09569e-08
1.80369e-08
1.64125e-08
1.41258e-08
1.19855e-08
9.76037e-09
2.85213e-09
2.43297e-09
1.14655e-09
5.46498e-10
6.49885e-08
3.73197e-08
3.42077e-09
2.7507e-09
5.34254e-08
1.47577e-08
2.87272e-08
2.64128e-08
2.75436e-08
2.82436e-08
2.87371e-08
3.47442e-08
3.85182e-08
4.27178e-08
4.59995e-08
4.65969e-08
4.66552e-08
4.41848e-08
4.23143e-08
4.01896e-08
4.09501e-08
4.25388e-08
3.65253e-08
3.12239e-08
3.25406e-08
2.98446e-08
2.67235e-08
2.54431e-08
2.19397e-08
1.86391e-08
1.90731e-08
1.72231e-08
1.156e-08
9.79595e-09
1.05128e-08
9.76567e-09
5.17287e-09
4.84629e-10
3.07381e-09
2.7787e-09
1.7832e-10
4.20371e-09
4.86619e-09
2.31146e-10
1.77194e-09
1.71199e-09
2.78534e-08
2.65313e-08
2.49659e-08
2.41126e-08
2.60575e-08
3.24048e-08
3.39915e-08
3.44871e-08
3.90258e-08
3.75941e-08
3.734e-08
3.71304e-08
3.58347e-08
3.4655e-08
3.35742e-08
3.45717e-08
3.35389e-08
2.86181e-08
2.72031e-08
2.80924e-08
2.48634e-08
2.26655e-08
2.21344e-08
2.04378e-08
1.80308e-08
1.72008e-08
1.42637e-08
1.2366e-08
1.08344e-08
1.02325e-08
1.04113e-08
7.58066e-09
6.35607e-09
5.27648e-09
1.88301e-09
4.41652e-09
4.09933e-09
2.68003e-09
1.15936e-08
2.2409e-09
2.40393e-08
2.46302e-08
2.2637e-08
2.21205e-08
2.45143e-08
2.90241e-08
3.14541e-08
3.04086e-08
3.16849e-08
3.11033e-08
3.11474e-08
3.12595e-08
3.07108e-08
3.05499e-08
2.98288e-08
2.70095e-08
2.81795e-08
2.88413e-08
2.49545e-08
2.35199e-08
2.38503e-08
2.22767e-08
2.00621e-08
2.00365e-08
1.77083e-08
1.54249e-08
1.45105e-08
1.40277e-08
1.2194e-08
9.06315e-09
8.11891e-09
6.4042e-09
5.16618e-09
4.46599e-09
4.5318e-10
5.01881e-11
1.27285e-10
1.81985e-09
3.14437e-08
1.29688e-11
2.2205e-08
2.2534e-08
2.08453e-08
2.04367e-08
2.20107e-08
2.50942e-08
2.76301e-08
2.80099e-08
2.6787e-08
2.6231e-08
2.54113e-08
2.62273e-08
2.65977e-08
2.6314e-08
2.57327e-08
2.483e-08
2.24917e-08
2.38727e-08
2.37706e-08
2.16433e-08
2.06747e-08
2.14887e-08
1.95746e-08
1.75803e-08
1.7099e-08
1.62369e-08
1.41235e-08
1.20654e-08
1.12076e-08
8.86808e-09
8.00759e-09
6.47768e-09
5.66648e-09
5.31576e-09
5.0741e-09
2.72476e-09
1.14367e-09
1.75463e-09
1.01325e-09
1.27071e-09
1.99565e-08
2.01152e-08
1.91625e-08
1.8927e-08
2.01367e-08
2.18941e-08
2.29854e-08
2.37584e-08
2.30614e-08
2.25865e-08
2.2579e-08
2.18435e-08
2.24371e-08
2.2927e-08
2.16026e-08
2.1744e-08
2.19461e-08
1.98059e-08
2.00959e-08
2.17052e-08
2.06907e-08
1.92532e-08
1.90887e-08
1.82835e-08
1.67256e-08
1.5566e-08
1.44647e-08
1.24229e-08
1.12022e-08
9.93182e-09
9.53541e-09
7.8221e-09
6.21771e-09
4.4622e-09
4.17075e-09
4.21775e-09
3.55582e-09
3.31085e-09
2.26775e-09
2.38082e-09
1.80088e-08
1.82944e-08
1.74238e-08
1.7016e-08
1.80008e-08
1.92632e-08
1.9667e-08
1.96764e-08
1.99293e-08
1.91851e-08
1.90204e-08
1.96548e-08
1.89781e-08
1.86577e-08
1.93385e-08
1.84035e-08
1.80555e-08
1.89093e-08
1.85655e-08
1.83892e-08
1.91882e-08
1.87498e-08
1.78364e-08
1.73528e-08
1.64846e-08
1.47198e-08
1.34318e-08
1.246e-08
1.13601e-08
9.40005e-09
7.8361e-09
6.62095e-09
6.30762e-09
5.40768e-09
4.85541e-09
3.2359e-09
2.52684e-09
1.48092e-09
1.35815e-09
2.1605e-09
1.66146e-08
1.64885e-08
1.59486e-08
1.5789e-08
1.59748e-08
1.65209e-08
1.70385e-08
1.68095e-08
1.65429e-08
1.68113e-08
1.65831e-08
1.64862e-08
1.67962e-08
1.63342e-08
1.57873e-08
1.61828e-08
1.58911e-08
1.59773e-08
1.7134e-08
1.73857e-08
1.73544e-08
1.77531e-08
1.75156e-08
1.62696e-08
1.52208e-08
1.42916e-08
1.3039e-08
1.12002e-08
9.93399e-09
8.75007e-09
8.01479e-09
6.48027e-09
5.44642e-09
4.07602e-09
3.69457e-09
3.25724e-09
2.9462e-09
2.65684e-09
2.42443e-09
2.34856e-09
1.50157e-08
1.48408e-08
1.42887e-08
1.39357e-08
1.41329e-08
1.42462e-08
1.41419e-08
1.43604e-08
1.4254e-08
1.40748e-08
1.45441e-08
1.45545e-08
1.42422e-08
1.45028e-08
1.39942e-08
1.32519e-08
1.38384e-08
1.40802e-08
1.38369e-08
1.43061e-08
1.45756e-08
1.36774e-08
1.2574e-08
1.14813e-08
1.00531e-08
8.2043e-09
6.7901e-09
5.63133e-09
4.64122e-09
3.34801e-09
2.50995e-09
1.72395e-09
1.63303e-09
1.17253e-09
1.24422e-09
6.92465e-10
7.06514e-10
4.84988e-10
5.78312e-10
1.09359e-09
1.43916e-08
1.40141e-08
1.33822e-08
1.2871e-08
1.26535e-08
1.26426e-08
1.25727e-08
1.24553e-08
1.2731e-08
1.30588e-08
1.32139e-08
1.36556e-08
1.36474e-08
1.27569e-08
1.18901e-08
1.03785e-08
7.72981e-09
5.41653e-09
3.7124e-09
2.00042e-09
9.15438e-10
3.80803e-10
1.3383e-10
2.56436e-11
4.19739e-12
2.57522e-13
4.3201e-14
9.20056e-13
6.69739e-13
3.46519e-13
1.4451e-14
4.47512e-13
3.8222e-12
5.8715e-12
1.47407e-11
2.16957e-11
6.53998e-11
9.34159e-11
1.79531e-10
2.06305e-10
1.25209e-08
1.23888e-08
1.19623e-08
1.15132e-08
1.12894e-08
1.11755e-08
1.11132e-08
1.11827e-08
1.12045e-08
1.12389e-08
1.12363e-08
1.04737e-08
8.85554e-09
6.65866e-09
3.75879e-09
1.24521e-09
1.80065e-10
2.85737e-13
7.68107e-11
4.30763e-10
7.0725e-10
9.07495e-10
1.02029e-09
9.39742e-10
7.22631e-10
5.26153e-10
3.42135e-10
1.92554e-10
8.58614e-11
3.4571e-11
1.03381e-11
2.99802e-12
1.29516e-13
8.89799e-14
1.81136e-12
3.55488e-12
9.0207e-12
1.06309e-11
1.40458e-11
1.58027e-11
1.34279e-09
1.37218e-09
1.41232e-09
1.53782e-09
1.75151e-09
1.97249e-09
2.15818e-09
2.33313e-09
2.44062e-09
2.41564e-09
2.26446e-09
1.90562e-09
1.33807e-09
7.43384e-10
2.79691e-10
4.18468e-11
5.8042e-13
3.36947e-11
1.71565e-10
3.27207e-10
3.55599e-10
3.11862e-10
2.6029e-10
2.02354e-10
1.32813e-10
8.15846e-11
4.72084e-11
2.60561e-11
1.04541e-11
2.91026e-12
3.74717e-13
4.17893e-14
6.10523e-14
2.29973e-13
9.14058e-13
1.71094e-12
3.53299e-12
3.64138e-12
4.45683e-12
2.2792e-12
9.05824e-12
1.00589e-11
1.31474e-11
1.9355e-11
2.95756e-11
4.10101e-11
5.21496e-11
6.6504e-11
8.13686e-11
9.26976e-11
1.02044e-10
9.63922e-11
7.45251e-11
4.83606e-11
2.09493e-11
3.03845e-12
4.76023e-13
7.23138e-12
2.84088e-11
5.43997e-11
6.32467e-11
5.64376e-11
4.22972e-11
2.74378e-11
1.41887e-11
5.98146e-12
2.22166e-12
7.68644e-13
1.14377e-13
4.93324e-16
4.99212e-14
2.14694e-13
5.22231e-13
7.02088e-13
1.0127e-12
9.26877e-13
1.04682e-12
7.29285e-13
6.10631e-13
3.20684e-13
3.72099e-14
2.24886e-14
4.01566e-14
7.60194e-14
1.39013e-13
2.45121e-13
3.92222e-13
5.90669e-13
8.83537e-13
1.24921e-12
1.68207e-12
2.02709e-12
2.06869e-12
1.87293e-12
8.51783e-13
4.9121e-14
4.63602e-13
3.36611e-12
7.10534e-12
7.61724e-12
4.03893e-12
9.34743e-13
6.81898e-14
2.15875e-15
1.001e-13
2.51128e-13
3.48171e-13
3.71135e-13
3.8893e-13
3.26215e-13
2.50275e-13
1.59367e-13
1.0554e-13
6.08384e-14
3.665e-14
1.86005e-14
1.05889e-14
3.61304e-15
3.886e-15
1.62862e-14
)
;

boundaryField
{
    inlet
    {
        type            calculated;
        value           nonuniform List<scalar> 
20
(
1.71646e-34
1.0067e-32
5.25776e-33
9.26297e-33
2.11251e-34
1.2166e-33
9.56613e-35
1.11071e-33
1.34449e-33
1.68745e-33
1.81171e-33
1.31877e-33
5.10014e-34
4.68694e-35
3.34401e-35
4.04659e-34
1.36e-34
6.09839e-33
6.22928e-33
1.49177e-34
)
;
    }
    outlet
    {
        type            calculated;
        value           nonuniform List<scalar> 
27
(
1.99832e-35
4.58184e-33
1.20693e-33
2.25054e-32
1.57742e-32
2.18326e-32
3.42439e-33
1.91872e-32
1.09184e-32
2.9835e-33
6.79111e-33
6.89034e-33
1.09638e-32
1.08596e-32
7.13199e-33
1.12368e-33
2.40595e-36
1.73609e-35
4.6997e-35
7.11496e-36
1.53107e-35
7.77616e-35
1.26721e-34
3.15681e-35
7.51891e-33
1.5489e-32
2.77067e-32
)
;
    }
    lowerWall
    {
        type            fixedValue;
        value           uniform 0;
    }
    upperWall
    {
        type            fixedValue;
        value           uniform 0;
    }
    defaultFaces
    {
        type            empty;
    }
}


// ************************************************************************* //
