/*--------------------------------*- C++ -*----------------------------------*\
| =========                 |                                                 |
| \\      /  F ield         | OpenFOAM: The Open Source CFD Toolbox           |
|  \\    /   O peration     | Version:  2112                                  |
|   \\  /    A nd           | Website:  www.openfoam.com                      |
|    \\/     M anipulation  |                                                 |
\*---------------------------------------------------------------------------*/
FoamFile
{
    version     2.0;
    format      ascii;
    arch        "LSB;label=32;scalar=64";
    class       volScalarField;
    location    "0.44";
    object      p;
}
// * * * * * * * * * * * * * * * * * * * * * * * * * * * * * * * * * * * * * //

dimensions      [0 2 -2 0 0 0 0];

internalField   nonuniform List<scalar> 
1880
(
0.00312431
0.00299098
0.0028976
0.00284979
0.00282121
0.00280016
0.00278172
0.00276343
0.00274901
0.00273574
0.00272795
0.00272026
0.00271945
0.00272015
0.00272271
0.0027368
0.00274738
0.00276982
0.00279927
0.00282964
0.00287633
0.00292833
0.00298375
0.0030552
0.0031344
0.00320345
0.00329725
0.00334549
0.00340465
0.00337301
0.0029451
0.00291278
0.00287167
0.00283588
0.00280646
0.00278486
0.00276721
0.00275313
0.00273849
0.00272892
0.00271662
0.00271189
0.00270696
0.00270829
0.00270844
0.00272105
0.00272942
0.00274867
0.00277495
0.00279978
0.00284374
0.00289
0.00293363
0.00300588
0.00306356
0.00313638
0.00320955
0.00326319
0.00331577
0.00336656
0.00291096
0.00289052
0.0028595
0.00282847
0.00280071
0.00277837
0.00276049
0.00274498
0.00273108
0.0027207
0.00270816
0.00270196
0.00269433
0.00269428
0.00269135
0.00269973
0.00270563
0.00271801
0.0027395
0.00275646
0.00279096
0.00282256
0.00285712
0.00290823
0.00295204
0.0029965
0.00304911
0.00308783
0.00311335
0.00314618
0.00285384
0.00284144
0.00282265
0.00280394
0.00278189
0.00276385
0.0027453
0.00273037
0.00271651
0.00270532
0.00269376
0.00268393
0.00267763
0.00267181
0.00266942
0.00267015
0.00267459
0.00268023
0.00269273
0.00270399
0.00272648
0.00274483
0.00276799
0.00279926
0.00282228
0.00284574
0.00287434
0.00287946
0.00288387
0.00287708
0.00282472
0.00281614
0.00280177
0.0027878
0.00276996
0.00275354
0.00273511
0.00271935
0.00270423
0.00269256
0.00267944
0.00266824
0.00265947
0.00265094
0.002645
0.00264078
0.00264103
0.00264005
0.00264414
0.00264971
0.00265845
0.00266735
0.00267507
0.00268811
0.00269418
0.00269815
0.00269463
0.00268059
0.0026537
0.00261144
0.00279679
0.00278962
0.0027778
0.00276648
0.00275245
0.00273757
0.00272124
0.00270405
0.0026894
0.00267562
0.00266233
0.00264863
0.00263833
0.00262683
0.00261693
0.00260875
0.00260348
0.00259677
0.00259315
0.0025899
0.00258918
0.00258561
0.00258047
0.00257766
0.00256738
0.00254872
0.00252628
0.00248725
0.00243552
0.00236669
0.00277525
0.00276981
0.00275966
0.00274992
0.0027378
0.00272424
0.00270872
0.00269102
0.00267552
0.00266027
0.0026454
0.0026296
0.00261665
0.00260241
0.00258828
0.00257607
0.00256515
0.00255297
0.00254097
0.0025305
0.00251953
0.00250508
0.00248769
0.0024701
0.00244385
0.00240968
0.00236663
0.00230744
0.00223587
0.00214532
0.00275771
0.00275295
0.00274432
0.00273462
0.00272379
0.00271024
0.0026956
0.00267716
0.00266062
0.00264418
0.00262722
0.00260946
0.00259376
0.00257644
0.00255875
0.00254185
0.0025259
0.00250773
0.00248878
0.00247026
0.00245039
0.00242579
0.0023973
0.00236578
0.00232749
0.00227711
0.00221805
0.00214311
0.00205397
0.00194534
0.0027436
0.00273977
0.00273187
0.00272208
0.00271155
0.00269776
0.00268328
0.00266402
0.00264633
0.00262853
0.00260931
0.00258965
0.0025709
0.00255072
0.00252924
0.00250779
0.00248704
0.00246321
0.00243735
0.00241158
0.0023833
0.00234955
0.00231072
0.00226773
0.00221737
0.00215435
0.00208171
0.00199299
0.0018895
0.00176857
0.00273325
0.00272948
0.00272226
0.0027121
0.0027012
0.00268689
0.00267166
0.00265181
0.0026325
0.00261329
0.00259192
0.00256984
0.00254854
0.0025251
0.00250001
0.00247434
0.00244879
0.00241955
0.00238744
0.00235476
0.00231909
0.00227668
0.00222896
0.00217557
0.00211526
0.00204163
0.00195698
0.00185755
0.00174348
0.00161229
0.00272611
0.00272259
0.00271561
0.00270481
0.00269302
0.00267769
0.00266132
0.00264058
0.00261949
0.00259883
0.00257512
0.00255074
0.00252688
0.00250018
0.00247168
0.00244187
0.00241178
0.00237767
0.00233952
0.00230073
0.00225838
0.00220812
0.00215242
0.00209051
0.00202128
0.00193879
0.00184451
0.00173647
0.00161397
0.00147524
0.00272283
0.00271902
0.00271187
0.00270035
0.00268713
0.00267065
0.00265261
0.00263078
0.00260791
0.00258546
0.00255973
0.00253281
0.00250653
0.00247677
0.00244467
0.00241122
0.00237685
0.00233805
0.0022946
0.00225014
0.00220187
0.0021447
0.00208188
0.00201272
0.0019358
0.0018461
0.00174399
0.00162907
0.00150056
0.00135633
0.00272325
0.00271907
0.00271119
0.00269845
0.0026833
0.00266501
0.00264495
0.00262171
0.00259699
0.00257273
0.00254509
0.00251577
0.00248721
0.00245449
0.00241902
0.00238229
0.00234381
0.00230079
0.00225263
0.00220307
0.00214967
0.00208645
0.00201726
0.00194228
0.00185892
0.00176307
0.00165485
0.00153459
0.00140151
0.0012531
0.0027285
0.00272375
0.00271487
0.00270073
0.00268339
0.00266308
0.00264079
0.00261577
0.0025892
0.00256279
0.00253321
0.00250144
0.00247024
0.00243478
0.00239595
0.00235608
0.00231388
0.00226677
0.00221452
0.00216045
0.00210229
0.0020339
0.00195924
0.00187943
0.0017907
0.00168974
0.00157684
0.00145248
0.00131615
0.00116517
0.00273823
0.00273199
0.00272069
0.00270376
0.00268311
0.00265996
0.00263512
0.00260822
0.00258003
0.00255177
0.00252052
0.00248692
0.00245357
0.00241576
0.00237407
0.00233156
0.00228616
0.00223544
0.00217982
0.00212178
0.00205932
0.00198666
0.00190749
0.00182371
0.00173062
0.00162532
0.0015088
0.00138149
0.00124274
0.00108978
0.0027572
0.00274942
0.00273513
0.00271439
0.00268959
0.00266308
0.0026356
0.00260672
0.00257699
0.00254683
0.00251371
0.00247791
0.0024418
0.00240134
0.00235674
0.00231136
0.00226281
0.00220862
0.00214996
0.00208842
0.00202182
0.00194554
0.00186279
0.00177548
0.00167864
0.00156983
0.00145081
0.00132159
0.00118114
0.00102722
0.00277774
0.00276566
0.00274547
0.00271919
0.00269018
0.00266095
0.00263164
0.00260142
0.00257052
0.00253862
0.00250356
0.00246589
0.0024275
0.00238497
0.0023384
0.002291
0.0022402
0.00218345
0.00212251
0.00205812
0.00198795
0.00190897
0.00182373
0.00173338
0.00163344
0.0015221
0.00140145
0.00127102
0.00112928
0.000974095
0.00283103
0.00280854
0.00277444
0.00273676
0.00270074
0.00266778
0.00263661
0.00260484
0.00257216
0.00253792
0.00250067
0.00246115
0.00242047
0.00237617
0.00232826
0.00227873
0.00222538
0.00216618
0.00210287
0.00203538
0.00196166
0.00188029
0.00179264
0.00169898
0.00159637
0.00148357
0.00136202
0.00123088
0.00108849
0.000933532
0.00285984
0.00282515
0.0027804
0.00273767
0.00269974
0.00266671
0.00263503
0.00260215
0.00256815
0.00253206
0.00249317
0.00245268
0.00241028
0.00236436
0.00231514
0.00226355
0.00220799
0.00214704
0.00208168
0.00201147
0.00193523
0.00185325
0.001765
0.00166874
0.00156388
0.00145036
0.00132848
0.00119722
0.00105462
0.000899065
0.00303945
0.00289962
0.00280248
0.0027482
0.00271211
0.00267876
0.00264419
0.00260804
0.00257124
0.00253327
0.0024937
0.00245268
0.00240929
0.00236285
0.00231313
0.00226005
0.00220299
0.00214136
0.00207504
0.0020037
0.0019264
0.00184314
0.00175302
0.00165535
0.00154981
0.00143621
0.00131404
0.0011826
0.00104076
0.000887593
0.00349247
0.00354705
0.00319852
0.00286385
0.0022858
0.00167969
0.000855848
5.74494e-05
-0.00127703
-0.002651
0.00350647
0.00335954
0.00286157
0.00247603
0.00185105
0.00117637
0.00038886
-0.00051788
-0.00161871
-0.00291662
0.00317936
0.00295695
0.00251239
0.00217795
0.00157393
0.00103027
0.000219525
-0.000522915
-0.00157944
-0.00247412
0.0028773
0.00263563
0.0022392
0.00181424
0.00129627
0.000675354
-2.51356e-05
-0.000776976
-0.001637
-0.0024802
0.00256089
0.00231997
0.00191327
0.00153397
0.00103562
0.000510432
-0.000138964
-0.000828998
-0.00159634
-0.00232095
0.0022908
0.00203357
0.00168503
0.00128367
0.000837729
0.000309286
-0.000276476
-0.000921018
-0.00159645
-0.00224911
0.00203977
0.00179784
0.0014506
0.00107183
0.000648213
0.000170904
-0.000362898
-0.000953644
-0.00155731
-0.00213922
0.00182529
0.00158254
0.0012629
0.000895399
0.00050308
5.18766e-05
-0.000438988
-0.000983265
-0.00153055
-0.00205687
0.00163273
0.0014008
0.00109302
0.000744921
0.00037334
-4.37027e-05
-0.000496982
-0.000995697
-0.00149194
-0.00196697
0.00146732
0.00124177
0.000951424
0.000620426
0.000271387
-0.000118619
-0.00053938
-0.000997669
-0.00145312
-0.0018889
0.00132214
0.00110447
0.000828293
0.000514581
0.000183729
-0.000180637
-0.00057305
-0.000994539
-0.00141309
-0.00181404
0.00119851
0.000987746
0.000726084
0.000428649
0.000115249
-0.000226722
-0.000594217
-0.00098372
-0.00137035
-0.00174366
0.00109081
0.00088612
0.000637138
0.000354963
5.65295e-05
-0.000265732
-0.000610756
-0.000972189
-0.00133092
-0.00167951
0.00100092
0.000802312
0.000565469
0.000297679
1.32337e-05
-0.000291773
-0.000616424
-0.000954081
-0.00128967
-0.00161815
0.000922969
0.000728192
0.000501286
0.000246229
-2.5728e-05
-0.000315603
-0.000621927
-0.000938816
-0.00125429
-0.00156422
0.000860414
0.000670845
0.000453687
0.000210384
-5.00198e-05
-0.000326768
-0.000617546
-0.000917418
-0.00121703
-0.00151295
0.000805448
0.000617511
0.00040724
0.00017391
-7.58462e-05
-0.000340475
-0.000616944
-0.00090159
-0.00118694
-0.0014697
0.000766287
0.000582527
0.000379234
0.000154676
-8.60804e-05
-0.000341066
-0.000606815
-0.000880445
-0.00115593
-0.00142975
0.000730736
0.000547566
0.000348097
0.000130845
-0.000101139
-0.00034624
-0.000601066
-0.000863977
-0.00113055
-0.00139646
0.000722265
0.000540402
0.000342527
0.000128751
-9.91043e-05
-0.000340421
-0.000591865
-0.000852087
-0.00111632
-0.00138265
-0.00534897
-0.00571912
-0.00586634
-0.00597236
-0.00607897
-0.00639552
-0.00819447
-0.010828
-0.0127878
-0.0136519
-0.0133573
-0.0121949
-0.0104155
-0.00837908
-0.00618761
-0.00399141
-0.00196313
-0.000151799
0.00121173
0.00213139
0.00262311
0.00275622
0.00266399
0.00244186
0.00216756
0.00189046
0.001635
0.0014129
0.00122255
0.00105896
0.000912904
0.000776901
0.000645323
0.000516658
0.000393627
0.000282712
0.000188386
0.000113132
5.61231e-05
1.36096e-05
-0.00549218
-0.00580303
-0.00595512
-0.0058743
-0.00615723
-0.00717548
-0.00927774
-0.0118355
-0.0136253
-0.0143426
-0.013901
-0.0126034
-0.0107279
-0.00864585
-0.00644881
-0.00423274
-0.00220139
-0.000371508
0.00103024
0.00196792
0.0024892
0.00264886
0.00257789
0.00237374
0.00211315
0.00184605
0.00159891
0.00138396
0.00119954
0.00103808
0.000893497
0.000758092
0.000627588
0.000501468
0.000382558
0.000276445
0.000185965
0.000113039
5.68376e-05
1.45367e-05
-0.00565823
-0.00591799
-0.0059259
-0.00619705
-0.00661009
-0.00815806
-0.0106264
-0.0131527
-0.0148333
-0.015407
-0.0147834
-0.0132567
-0.0112544
-0.00907731
-0.00687365
-0.00466406
-0.002618
-0.000771372
0.00067371
0.00164549
0.00219933
0.00240044
0.00236725
0.00219937
0.00197168
0.00173179
0.00150663
0.00130864
0.00113629
0.000984183
0.000847219
0.000721002
0.000601359
0.000487616
0.000380868
0.00028371
0.000198199
0.000126421
6.80029e-05
2.017e-05
-0.00523005
-0.00546062
-0.00535278
-0.00558324
-0.00677746
-0.00915101
-0.0118791
-0.0143523
-0.0160036
-0.0164868
-0.0157142
-0.0139549
-0.0118059
-0.00956507
-0.00735696
-0.0051522
-0.00308322
-0.00123319
0.000232311
0.00123503
0.00181075
0.00205411
0.00207109
0.00195433
0.00177527
0.00157721
0.0013853
0.00121232
0.00105961
0.000922194
0.000796265
0.000678837
0.000567938
0.000463315
0.000365391
0.000276173
0.000196953
0.000128667
7.09048e-05
2.20137e-05
-0.00550902
-0.00590118
-0.00532311
-0.0057007
-0.0067805
-0.00955787
-0.0124588
-0.0150828
-0.0168599
-0.0173739
-0.0165325
-0.0145932
-0.0123256
-0.0100277
-0.00781705
-0.00563357
-0.0035602
-0.00171611
-0.000254491
0.00076701
0.00136088
0.00164061
0.00171128
0.00165438
0.00153347
0.00138721
0.00123738
0.00109542
0.00096483
0.000844151
0.000731489
0.000625541
0.000525836
0.000432237
0.000344979
0.000264486
0.000192019
0.000128686
7.31454e-05
2.42087e-05
-0.00446651
-0.00519856
-0.0043391
-0.00489459
-0.00649394
-0.009524
-0.0125795
-0.015299
-0.0171526
-0.0176881
-0.0168548
-0.0148617
-0.012574
-0.0103147
-0.00813983
-0.00600233
-0.00395014
-0.00213726
-0.000711537
0.000286538
0.000886148
0.00120372
0.00133389
0.00134227
0.00128284
0.00118998
0.00108313
0.000973462
0.000866207
0.000763103
0.000665135
0.000572304
0.000484383
0.000400864
0.000322543
0.000249914
0.000183519
0.000124412
7.13558e-05
2.36988e-05
-0.00461695
-0.00554445
-0.00459928
-0.00463658
-0.00607269
-0.0090848
-0.0121419
-0.0148765
-0.0167571
-0.0173836
-0.0165862
-0.0146931
-0.0125063
-0.0103525
-0.0082612
-0.00618663
-0.00419822
-0.00245937
-0.00109108
-0.000129269
0.000463106
0.000798783
0.000974357
0.00104219
0.00104016
0.000996673
0.000929373
0.000849656
0.000764809
0.000679129
0.000595823
0.000515645
0.000438698
0.000365625
0.000296489
0.000231947
0.00017125
0.000116367
6.65159e-05
2.18218e-05
-0.00505156
-0.00403705
-0.00359766
-0.00401088
-0.00575203
-0.00848823
-0.0112699
-0.0137937
-0.0155567
-0.0162122
-0.0156694
-0.0140751
-0.0121192
-0.0101207
-0.00813498
-0.00616719
-0.00428553
-0.00266368
-0.00140136
-0.000507655
8.62745e-05
0.000455759
0.000670018
0.000779787
0.00081748
0.000809552
0.00077429
0.000722396
0.00065941
0.000590613
0.000521937
0.000455443
0.000390926
0.000328915
0.000268663
0.000211268
0.000156469
0.000106267
6.12865e-05
1.95891e-05
-0.00387679
-0.0043264
-0.00460442
-0.00459325
-0.00554938
-0.00800227
-0.0104754
-0.0126749
-0.0142359
-0.01487
-0.0144863
-0.0131762
-0.0114566
-0.00962401
-0.00776505
-0.00593092
-0.00422611
-0.00276782
-0.0016293
-0.000815423
-0.000251642
0.000134601
0.00038724
0.000538552
0.000612861
0.000631708
0.000618233
0.000586966
0.000544079
0.00049337
0.000440401
0.000388065
0.000336569
0.000286253
0.000236084
0.000187252
0.000139549
9.60861e-05
5.57908e-05
1.82964e-05
-0.0033872
-0.00392161
-0.00416819
-0.0046007
-0.00572725
-0.00770678
-0.00975482
-0.0115604
-0.0128532
-0.0134028
-0.0130856
-0.0119987
-0.0104873
-0.00882616
-0.0071591
-0.00555661
-0.00409353
-0.00283577
-0.00182736
-0.00106706
-0.000518179
-0.000132751
0.000128121
0.00029447
0.000393037
0.000441483
0.000456434
0.000448604
0.000424755
0.000391359
0.000354175
0.000316037
0.00027693
0.000237735
0.000197795
0.000157546
0.000119025
8.23451e-05
4.82921e-05
1.61879e-05
-0.00315294
-0.0036855
-0.00419739
-0.00485298
-0.00579699
-0.00723671
-0.00880353
-0.0101763
-0.0111456
-0.0115692
-0.0113697
-0.0105134
-0.00927234
-0.00789473
-0.00650372
-0.00516884
-0.0039491
-0.00288592
-0.00200195
-0.00130499
-0.000777262
-0.000388584
-0.000114476
6.97581e-05
0.000185562
0.000251697
0.00028752
0.000303519
0.000303174
0.000290175
0.000270127
0.00024597
0.000218491
0.000189764
0.000160319
0.000129679
9.87494e-05
6.99614e-05
4.191e-05
1.41318e-05
-0.00291294
-0.00346743
-0.00402869
-0.0046886
-0.00550124
-0.00657087
-0.00775393
-0.00879825
-0.00955007
-0.00990878
-0.0097842
-0.00915642
-0.00818715
-0.0070696
-0.00593102
-0.00483535
-0.00381351
-0.00290124
-0.00212096
-0.00148406
-0.000993179
-0.000626233
-0.000351955
-0.00014979
-8.06876e-06
8.43068e-05
0.000141439
0.000175371
0.000192371
0.000195852
0.000190187
0.000178209
0.000161419
0.000142565
0.000120772
9.78747e-05
7.46876e-05
5.22029e-05
3.22134e-05
1.05811e-05
-0.00274411
-0.00327972
-0.00384012
-0.00446312
-0.00518029
-0.00601711
-0.00691971
-0.00772848
-0.00830371
-0.00856348
-0.00847232
-0.00800957
-0.00726817
-0.00638414
-0.00545495
-0.00454136
-0.0036754
-0.002888
-0.00220543
-0.00163403
-0.001172
-0.000812553
-0.0005391
-0.000332313
-0.000178945
-6.93784e-05
6.3036e-06
5.67552e-05
8.90451e-05
0.000107396
0.000115004
0.00011398
0.000107042
9.75437e-05
8.61078e-05
7.33157e-05
5.75856e-05
4.08003e-05
2.39988e-05
8.26497e-06
-0.0026024
-0.00310118
-0.00363456
-0.00421088
-0.00484397
-0.00552677
-0.00622609
-0.0068439
-0.00727913
-0.00748733
-0.00742758
-0.00708764
-0.00652072
-0.00581238
-0.00504613
-0.00428205
-0.00355045
-0.00287391
-0.00227012
-0.00175164
-0.0013243
-0.000983116
-0.000713981
-0.00050176
-0.000338449
-0.000217756
-0.000129629
-6.56055e-05
-2.0165e-05
1.03718e-05
2.98187e-05
4.14442e-05
4.69026e-05
4.80214e-05
4.52548e-05
3.97014e-05
3.23365e-05
2.2344e-05
1.47475e-05
4.34697e-06
-0.00248093
-0.00293769
-0.00343495
-0.003963
-0.00451918
-0.00508922
-0.00564682
-0.00613208
-0.00648178
-0.00664406
-0.00660229
-0.00634329
-0.00589668
-0.00532761
-0.00469737
-0.00405513
-0.00343231
-0.0028489
-0.00231933
-0.00185137
-0.00145338
-0.00112835
-0.000867283
-0.000657113
-0.000488627
-0.000357199
-0.000256369
-0.000178475
-0.000118325
-7.34791e-05
-4.12698e-05
-1.85951e-05
-3.1422e-06
6.89724e-06
1.23522e-05
1.46419e-05
1.45683e-05
1.15794e-05
7.07785e-06
2.54486e-06
-0.00236925
-0.00278823
-0.00324337
-0.0037236
-0.00421498
-0.00469888
-0.00515264
-0.00554046
-0.00582088
-0.00595723
-0.00592869
-0.00572849
-0.0053771
-0.0049178
-0.00439689
-0.00385628
-0.00332674
-0.00282131
-0.00235115
-0.00192981
-0.00156537
-0.00125987
-0.00100685
-0.000796652
-0.00062264
-0.000481466
-0.000369319
-0.000280849
-0.000210666
-0.000155152
-0.000111894
-7.88615e-05
-5.3843e-05
-3.5155e-05
-2.14851e-05
-1.18705e-05
-6.34246e-06
-3.17815e-06
-1.47797e-06
-3.03947e-07
-0.00226579
-0.00265099
-0.0030661
-0.00350191
-0.00393707
-0.00435215
-0.0047321
-0.00505256
-0.00528321
-0.00539723
-0.00537887
-0.00522251
-0.00494119
-0.00456698
-0.00413866
-0.00368546
-0.00322931
-0.00278848
-0.00237709
-0.00200233
-0.00166713
-0.00137611
-0.00113033
-0.000923039
-0.000747709
-0.000601565
-0.000481513
-0.000382779
-0.000301527
-0.000235205
-0.000181484
-0.000138339
-0.000104008
-7.71667e-05
-5.59404e-05
-3.93978e-05
-2.59646e-05
-1.6577e-05
-8.70134e-06
-2.38781e-06
-0.00216912
-0.00252588
-0.00290451
-0.00329774
-0.00368539
-0.00404888
-0.00437312
-0.00464234
-0.00483535
-0.00493201
-0.00492143
-0.00479842
-0.00457266
-0.00426859
-0.00391363
-0.00353169
-0.0031429
-0.00276236
-0.00239921
-0.00206083
-0.00175305
-0.00148031
-0.00124421
-0.0010406
-0.000863525
-0.000710559
-0.000581242
-0.000472704
-0.000381168
-0.000304512
-0.000240979
-0.000188585
-0.000145105
-0.000109516
-8.06649e-05
-5.76012e-05
-3.99552e-05
-2.58422e-05
-1.51011e-05
-5.06698e-06
-0.00207947
-0.00241182
-0.00275791
-0.00311337
-0.00346162
-0.00378352
-0.00406525
-0.00429562
-0.00445976
-0.00454413
-0.00453936
-0.00444218
-0.00426075
-0.00401239
-0.00371811
-0.00339809
-0.00306805
-0.00273826
-0.00241794
-0.00211525
-0.0018347
-0.00157941
-0.00135158
-0.00114997
-0.000971381
-0.000814135
-0.000677833
-0.00056097
-0.000460935
-0.000375433
-0.000302748
-0.000241696
-0.0001907
-0.000148478
-0.000113116
-8.32688e-05
-5.87562e-05
-3.81751e-05
-2.13155e-05
-6.95533e-06
-0.00199708
-0.0023081
-0.00262663
-0.00295001
-0.00326431
-0.00355207
-0.00380078
-0.00400099
-0.00414341
-0.00421713
-0.00421666
-0.00414072
-0.00399449
-0.00379176
-0.00354962
-0.00328215
-0.00300151
-0.00271817
-0.00243876
-0.00216859
-0.00191196
-0.00167211
-0.00145225
-0.00125311
-0.00107303
-0.000911118
-0.000767415
-0.000641122
-0.000530842
-0.000435441
-0.000353144
-0.000282684
-0.000222864
-0.000173004
-0.000131742
-9.82535e-05
-6.97498e-05
-4.60197e-05
-2.60043e-05
-8.50364e-06
-0.00192153
-0.00221469
-0.00251016
-0.00280602
-0.0030911
-0.00335049
-0.00357256
-0.00374916
-0.00387435
-0.00394085
-0.00394341
-0.00388293
-0.00376582
-0.00360143
-0.00340228
-0.00318082
-0.00294606
-0.00270483
-0.00246241
-0.00222273
-0.00198881
-0.00176377
-0.00155117
-0.00135333
-0.00117061
-0.00100331
-0.000852144
-0.000717368
-0.000598419
-0.00049446
-0.00040416
-0.000326387
-0.000259704
-0.000203201
-0.000155487
-0.000115914
-8.23036e-05
-5.42932e-05
-3.06127e-05
-1.00316e-05
-0.00185354
-0.00213173
-0.00240786
-0.00268073
-0.00294153
-0.00317715
-0.00337702
-0.00353481
-0.00364562
-0.00370488
-0.00370985
-0.00366219
-0.00356763
-0.00343498
-0.00327395
-0.00309341
-0.00290011
-0.00269857
-0.00249163
-0.00228126
-0.00206869
-0.00185651
-0.00164926
-0.00145117
-0.00126472
-0.00109158
-0.000932563
-0.000788283
-0.000659364
-0.000545493
-0.000445526
-0.000358993
-0.000285029
-0.000222561
-0.000169866
-0.000125804
-8.90087e-05
-5.84196e-05
-3.26341e-05
-1.04718e-05
-0.00179258
-0.00205877
-0.00231907
-0.0025727
-0.00281244
-0.00302804
-0.0032098
-0.00335138
-0.00345011
-0.00350315
-0.00350894
-0.00347062
-0.00339459
-0.00328854
-0.00316069
-0.00301782
-0.00286368
-0.00270032
-0.00252822
-0.00234638
-0.0021539
-0.0019534
-0.00175013
-0.0015497
-0.00135688
-0.00117547
-0.00100755
-0.000853837
-0.000714975
-0.000591641
-0.00048312
-0.000388931
-0.000308382
-0.000240353
-0.000182969
-0.000134968
-9.5016e-05
-6.19073e-05
-3.44236e-05
-1.10812e-05
-0.00173943
-0.00199625
-0.0022443
-0.00248234
-0.00270402
-0.0029012
-0.00306644
-0.00319462
-0.00328281
-0.00332947
-0.00333445
-0.00330225
-0.00324078
-0.00315741
-0.00305934
-0.00295249
-0.00283709
-0.00271093
-0.0025723
-0.0024181
-0.0022452
-0.00205491
-0.00185326
-0.00164825
-0.00144682
-0.0012549
-0.00107578
-0.000911761
-0.000762716
-0.000629312
-0.000512093
-0.000410535
-0.00032375
-0.000250456
-0.000188995
-0.000137808
-9.56908e-05
-6.12114e-05
-3.32786e-05
-1.01832e-05
-0.00169328
-0.00194382
-0.00218341
-0.00241004
-0.00261803
-0.00280022
-0.00295041
-0.00306548
-0.00314358
-0.0031831
-0.00318531
-0.00315638
-0.00310538
-0.00304058
-0.00296962
-0.00289746
-0.00282127
-0.00273351
-0.00262717
-0.00249556
-0.00233416
-0.00214765
-0.00194568
-0.00173653
-0.00152712
-0.00132507
-0.00113501
-0.000958884
-0.000799042
-0.000656663
-0.000531884
-0.000424252
-0.000332569
-0.000255388
-0.000190947
-0.00013763
-9.42347e-05
-5.90152e-05
-3.13686e-05
-9.09857e-06
-0.00165485
-0.00190101
-0.00213401
-0.00235064
-0.00254693
-0.00271766
-0.00285792
-0.00296317
-0.00303164
-0.00306348
-0.00306119
-0.00303254
-0.00298839
-0.00293868
-0.00289113
-0.00285113
-0.00281632
-0.00277055
-0.00269574
-0.00258098
-0.0024218
-0.00222809
-0.00201449
-0.00179317
-0.00157279
-0.00136092
-0.00116267
-0.000980466
-0.000815036
-0.000667288
-0.000537976
-0.000426952
-0.000332792
-0.000253627
-0.000187732
-0.00013341
-8.96587e-05
-5.46288e-05
-2.79923e-05
-7.32826e-06
-0.00164314
-0.00188793
-0.00211671
-0.00232798
-0.00251797
-0.00268261
-0.00281682
-0.00291637
-0.00297956
-0.00300678
-0.00300144
-0.00297214
-0.00292957
-0.00288316
-0.00284291
-0.00281425
-0.00279203
-0.00275936
-0.00269764
-0.00259362
-0.00244235
-0.00225241
-0.00203829
-0.00181409
-0.00158956
-0.00137368
-0.0011718
-0.000986751
-0.000819054
-0.000669695
-0.000539035
-0.000427059
-0.000331987
-0.000252391
-0.00018603
-0.000131788
-8.78903e-05
-5.3128e-05
-2.67866e-05
-6.40917e-06
)
;

boundaryField
{
    inlet
    {
        type            zeroGradient;
    }
    outlet
    {
        type            fixedValue;
        value           uniform 0;
    }
    lowerWall
    {
        type            zeroGradient;
    }
    upperWall
    {
        type            zeroGradient;
    }
    defaultFaces
    {
        type            empty;
    }
}


// ************************************************************************* //
