/*--------------------------------*- C++ -*----------------------------------*\
| =========                 |                                                 |
| \\      /  F ield         | OpenFOAM: The Open Source CFD Toolbox           |
|  \\    /   O peration     | Version:  2112                                  |
|   \\  /    A nd           | Website:  www.openfoam.com                      |
|    \\/     M anipulation  |                                                 |
\*---------------------------------------------------------------------------*/
FoamFile
{
    version     2.0;
    format      ascii;
    arch        "LSB;label=32;scalar=64";
    class       surfaceScalarField;
    location    "0.44";
    object      phi;
}
// * * * * * * * * * * * * * * * * * * * * * * * * * * * * * * * * * * * * * //

dimensions      [0 3 -1 0 0 0 0];

oriented        oriented;

internalField   nonuniform List<scalar> 
3653
(
9.92359e-07
7.64089e-09
9.79534e-07
1.28247e-08
9.63599e-07
1.59349e-08
9.485e-07
1.50999e-08
9.31541e-07
1.69585e-08
9.14966e-07
1.65747e-08
8.96898e-07
1.80678e-08
8.79173e-07
1.77259e-08
8.60601e-07
1.85715e-08
8.41917e-07
1.86836e-08
8.23466e-07
1.84517e-08
8.03237e-07
2.0229e-08
7.84968e-07
1.82687e-08
7.6299e-07
2.19778e-08
7.43441e-07
1.95494e-08
7.2099e-07
2.24505e-08
6.98031e-07
2.29596e-08
6.74395e-07
2.36359e-08
6.48623e-07
2.57711e-08
6.20715e-07
2.79082e-08
5.9201e-07
2.8705e-08
5.5847e-07
3.35401e-08
5.22018e-07
3.64524e-08
4.82735e-07
3.92827e-08
4.37181e-07
4.55538e-08
3.84724e-07
5.24571e-08
3.27397e-07
5.7327e-08
2.59621e-07
6.77765e-08
1.8735e-07
7.2271e-08
6.92845e-08
1.18065e-07
1.00197e-06
5.6706e-09
1.00711e-06
7.68179e-09
1.00783e-06
1.52223e-08
1.01085e-06
1.20753e-08
1.01036e-06
1.74508e-08
1.01146e-06
1.54696e-08
1.01129e-06
1.82362e-08
1.01055e-06
1.8471e-08
1.00899e-06
2.01331e-08
1.00827e-06
1.94027e-08
1.00356e-06
2.31645e-08
1.00308e-06
2.07064e-08
9.96433e-07
2.49149e-08
9.94072e-07
2.43388e-08
9.86787e-07
2.68337e-08
9.82304e-07
2.69342e-08
9.71503e-07
3.376e-08
9.67562e-07
2.75777e-08
9.51884e-07
4.14485e-08
9.44951e-07
3.48409e-08
9.2761e-07
4.60466e-08
9.13716e-07
4.74338e-08
8.9223e-07
5.79389e-08
8.75579e-07
5.59337e-08
8.41446e-07
7.96868e-08
8.20618e-07
7.32853e-08
7.7711e-07
1.00834e-07
7.41818e-07
1.03069e-07
6.82976e-07
1.31113e-07
1.27144e-07
6.25116e-07
1.00126e-06
4.41113e-09
1.00474e-06
4.1987e-09
1.00718e-06
1.27889e-08
1.00967e-06
9.57642e-09
1.01145e-06
1.56785e-08
1.01313e-06
1.3788e-08
1.01529e-06
1.60761e-08
1.01652e-06
1.72426e-08
1.01786e-06
1.87922e-08
1.01971e-06
1.75489e-08
1.01852e-06
2.43542e-08
1.02169e-06
1.75383e-08
1.01846e-06
2.81438e-08
1.02078e-06
2.20217e-08
1.01793e-06
2.96856e-08
1.01802e-06
2.68415e-08
1.0144e-06
3.73793e-08
1.01439e-06
2.75857e-08
1.00724e-06
4.85997e-08
1.00656e-06
3.55184e-08
9.99258e-07
5.33526e-08
9.93173e-07
5.35183e-08
9.86274e-07
6.48386e-08
9.7676e-07
6.54475e-08
9.64379e-07
9.2068e-08
9.54249e-07
8.34154e-08
9.36035e-07
1.19048e-07
9.21051e-07
1.18054e-07
8.95151e-07
1.57012e-07
1.54985e-07
8.6731e-07
1.00063e-06
3.77847e-09
1.00229e-06
2.5366e-09
1.0044e-06
1.06815e-08
1.00642e-06
7.56242e-09
1.00798e-06
1.41118e-08
1.01029e-06
1.14792e-08
1.01084e-06
1.55302e-08
1.0139e-06
1.41766e-08
1.01352e-06
1.91777e-08
1.01664e-06
1.44277e-08
1.01613e-06
2.48658e-08
1.01831e-06
1.53553e-08
1.01799e-06
2.84629e-08
1.01918e-06
2.08315e-08
1.01855e-06
3.03154e-08
1.019e-06
2.63935e-08
1.01833e-06
3.80474e-08
1.01694e-06
2.89731e-08
1.01653e-06
4.90091e-08
1.01379e-06
3.82645e-08
1.01161e-06
5.55359e-08
1.00959e-06
5.55372e-08
1.00544e-06
6.89886e-08
1.00095e-06
6.993e-08
9.98804e-07
9.42181e-08
9.90105e-07
9.21144e-08
9.87608e-07
1.21545e-07
9.80114e-07
1.25547e-07
9.76082e-07
1.61045e-07
1.70999e-07
9.60068e-07
1.00067e-06
3.10865e-09
1.00151e-06
1.6994e-09
1.00324e-06
8.94489e-09
1.00498e-06
5.82718e-09
1.00647e-06
1.26158e-08
1.00844e-06
9.51039e-09
1.00932e-06
1.46497e-08
1.01164e-06
1.18643e-08
1.01206e-06
1.87574e-08
1.01444e-06
1.20466e-08
1.01463e-06
2.46729e-08
1.0166e-06
1.33813e-08
1.01678e-06
2.82913e-08
1.01809e-06
1.95149e-08
1.01802e-06
3.03888e-08
1.01877e-06
2.56456e-08
1.01875e-06
3.80695e-08
1.01811e-06
2.96041e-08
1.01848e-06
4.86436e-08
1.01679e-06
3.99584e-08
1.01595e-06
5.63717e-08
1.01535e-06
5.61402e-08
1.01285e-06
7.14809e-08
1.01178e-06
7.10085e-08
1.00999e-06
9.60072e-08
1.00813e-06
9.39696e-08
1.00694e-06
1.2274e-07
1.00592e-06
1.26563e-07
1.00669e-06
1.60274e-07
1.69599e-07
1.00809e-06
1.00074e-06
2.36956e-09
1.001e-06
1.43883e-09
1.00266e-06
7.2821e-09
1.00378e-06
4.70837e-09
1.00543e-06
1.09672e-08
1.00709e-06
7.85318e-09
1.00825e-06
1.34856e-08
1.01e-06
1.01145e-08
1.01143e-06
1.73286e-08
1.01242e-06
1.10563e-08
1.01454e-06
2.25483e-08
1.01484e-06
1.30881e-08
1.01681e-06
2.6323e-08
1.01723e-06
1.909e-08
1.01844e-06
2.91831e-08
1.01867e-06
2.54148e-08
1.02016e-06
3.65797e-08
1.0191e-06
3.06571e-08
1.02104e-06
4.67089e-08
1.0197e-06
4.13015e-08
1.02042e-06
5.5646e-08
1.02018e-06
5.63861e-08
1.02037e-06
7.12876e-08
1.01931e-06
7.20688e-08
1.02146e-06
9.38573e-08
1.02004e-06
9.53837e-08
1.02265e-06
1.20137e-07
1.02391e-06
1.25303e-07
1.02903e-06
1.55154e-07
1.66654e-07
1.03197e-06
1.00057e-06
1.79621e-09
1.00089e-06
1.12575e-09
1.00214e-06
6.02861e-09
1.0032e-06
3.64374e-09
1.00472e-06
9.45314e-09
1.00623e-06
6.34531e-09
1.00759e-06
1.21205e-08
1.00921e-06
8.4971e-09
1.01078e-06
1.57565e-08
1.0119e-06
9.94097e-09
1.0141e-06
2.03493e-08
1.0146e-06
1.25877e-08
1.01691e-06
2.40117e-08
1.01754e-06
1.84539e-08
1.01912e-06
2.76024e-08
1.02e-06
2.45346e-08
1.02156e-06
3.50281e-08
1.02169e-06
3.05183e-08
1.02373e-06
4.46695e-08
1.02376e-06
4.12778e-08
1.02494e-06
5.44607e-08
1.02609e-06
5.52349e-08
1.02709e-06
7.02954e-08
1.02829e-06
7.08622e-08
1.03066e-06
9.14924e-08
1.03242e-06
9.36227e-08
1.0362e-06
1.16352e-07
1.03994e-06
1.21564e-07
1.04659e-06
1.48504e-07
1.58589e-07
1.05466e-06
1.00057e-06
1.22779e-09
1.00067e-06
1.02775e-09
1.002e-06
4.69722e-09
1.00269e-06
2.94661e-09
1.00444e-06
7.71063e-09
1.00559e-06
5.18837e-09
1.00743e-06
1.02827e-08
1.0086e-06
7.3287e-09
1.01087e-06
1.34838e-08
1.01155e-06
9.26577e-09
1.01439e-06
1.75034e-08
1.0148e-06
1.21787e-08
1.01755e-06
2.12701e-08
1.01837e-06
1.76244e-08
1.02059e-06
2.53913e-08
1.02155e-06
2.35712e-08
1.02399e-06
3.25865e-08
1.0245e-06
3.00107e-08
1.02732e-06
4.18512e-08
1.02806e-06
4.05384e-08
1.03049e-06
5.20316e-08
1.03205e-06
5.36691e-08
1.03503e-06
6.73211e-08
1.03663e-06
6.92553e-08
1.0412e-06
8.69206e-08
1.04401e-06
9.08158e-08
1.04989e-06
1.10476e-07
1.05476e-06
1.16693e-07
1.06388e-06
1.39381e-07
1.5041e-07
1.07206e-06
1.00038e-06
8.45277e-10
1.00067e-06
7.38601e-10
1.0018e-06
3.57277e-09
1.00256e-06
2.18355e-09
1.00428e-06
5.98885e-09
1.00538e-06
4.08871e-09
1.0074e-06
8.26559e-09
1.00857e-06
6.15364e-09
1.01098e-06
1.10789e-08
1.01191e-06
8.33747e-09
1.01478e-06
1.46341e-08
1.01561e-06
1.13478e-08
1.01846e-06
1.84194e-08
1.01975e-06
1.63346e-08
1.02223e-06
2.29076e-08
1.02376e-06
2.20389e-08
1.02653e-06
2.98148e-08
1.02783e-06
2.87179e-08
1.03107e-06
3.86068e-08
1.03277e-06
3.88352e-08
1.03585e-06
4.896e-08
1.03846e-06
5.10511e-08
1.04226e-06
6.35303e-08
1.04537e-06
6.61406e-08
1.0507e-06
8.15915e-08
1.05515e-06
8.63673e-08
1.06226e-06
1.03367e-07
1.06887e-06
1.1008e-07
1.0788e-06
1.29454e-07
1.3977e-07
1.08944e-06
1.00038e-06
4.65415e-10
1.00062e-06
4.99885e-10
1.00179e-06
2.40253e-09
1.0025e-06
1.47009e-09
1.00429e-06
4.20142e-09
1.00538e-06
2.99633e-09
1.00757e-06
6.07824e-09
1.00878e-06
4.93819e-09
1.01139e-06
8.47398e-09
1.01252e-06
7.20446e-09
1.01549e-06
1.16669e-08
1.01672e-06
1.01137e-08
1.01972e-06
1.54249e-08
1.02139e-06
1.46626e-08
1.02429e-06
2.00035e-08
1.02617e-06
2.01637e-08
1.02947e-06
2.65172e-08
1.03136e-06
2.68277e-08
1.03513e-06
3.4836e-08
1.03755e-06
3.64168e-08
1.04151e-06
4.49992e-08
1.04473e-06
4.78257e-08
1.04971e-06
5.85515e-08
1.05363e-06
6.22218e-08
1.06008e-06
7.51387e-08
1.06569e-06
8.07571e-08
1.07398e-06
9.50777e-08
1.08161e-06
1.02448e-07
1.09271e-06
1.18363e-07
1.28523e-07
1.10395e-06
1.00029e-06
1.79447e-10
1.00065e-06
1.34978e-10
1.00178e-06
1.27311e-09
1.00261e-06
6.36838e-10
1.00444e-06
2.37969e-09
1.00566e-06
1.77608e-09
1.0079e-06
3.82906e-09
1.00936e-06
3.4798e-09
1.01195e-06
5.88279e-09
1.01352e-06
5.63841e-09
1.01641e-06
8.77472e-09
1.01817e-06
8.35916e-09
1.02122e-06
1.23693e-08
1.02336e-06
1.25221e-08
1.02652e-06
1.68442e-08
1.02891e-06
1.77721e-08
1.03252e-06
2.29125e-08
1.03511e-06
2.42403e-08
1.03922e-06
3.07218e-08
1.04247e-06
3.31698e-08
1.04697e-06
4.04978e-08
1.05105e-06
4.3745e-08
1.05667e-06
5.2928e-08
1.06166e-06
5.72366e-08
1.06882e-06
6.798e-08
1.07551e-06
7.40626e-08
1.0845e-06
8.60889e-08
1.09339e-06
9.35541e-08
1.10493e-06
1.06824e-07
1.16156e-07
1.1173e-06
1.00029e-06
-1.08434e-10
1.00071e-06
-2.84454e-10
1.00189e-06
9.28763e-11
1.00286e-06
-3.38447e-10
1.00471e-06
5.32167e-10
1.00614e-06
3.4642e-10
1.00842e-06
1.54423e-09
1.01015e-06
1.75853e-09
1.01277e-06
3.25774e-09
1.01471e-06
3.70193e-09
1.01761e-06
5.87232e-09
1.01981e-06
6.15759e-09
1.02299e-06
9.19175e-09
1.02554e-06
9.97413e-09
1.02898e-06
1.33968e-08
1.03182e-06
1.49371e-08
1.03574e-06
1.89881e-08
1.03895e-06
2.10296e-08
1.04343e-06
2.62476e-08
1.04736e-06
2.92341e-08
1.05244e-06
3.542e-08
1.05718e-06
3.90034e-08
1.06346e-06
4.66475e-08
1.06931e-06
5.13878e-08
1.07706e-06
6.02378e-08
1.08466e-06
6.64593e-08
1.09427e-06
7.64766e-08
1.10399e-06
8.38323e-08
1.11604e-06
9.47757e-08
1.03411e-07
1.12879e-06
1.00028e-06
-3.8584e-10
1.00084e-06
-8.50956e-10
1.00209e-06
-1.1509e-09
1.0033e-06
-1.5515e-09
1.00522e-06
-1.38946e-09
1.00691e-06
-1.33625e-09
1.00922e-06
-7.7354e-10
1.01124e-06
-2.63356e-10
1.01386e-06
6.41672e-10
1.01619e-06
1.37763e-09
1.01912e-06
2.9352e-09
1.02172e-06
3.56311e-09
1.02503e-06
5.87425e-09
1.02797e-06
7.03629e-09
1.03164e-06
9.73273e-09
1.03495e-06
1.16204e-08
1.03911e-06
1.48331e-08
1.04292e-06
1.72134e-08
1.04769e-06
2.14828e-08
1.05229e-06
2.4636e-08
1.0578e-06
2.99048e-08
1.06321e-06
3.35953e-08
1.06993e-06
3.99272e-08
1.07657e-06
4.47533e-08
1.08477e-06
5.20288e-08
1.09314e-06
5.8095e-08
1.10314e-06
6.64714e-08
1.11359e-06
7.33853e-08
1.1259e-06
8.24622e-08
9.01141e-08
1.1392e-06
1.00029e-06
-6.73149e-10
1.00099e-06
-1.55792e-09
1.00235e-06
-2.50564e-09
1.00382e-06
-3.02486e-09
1.00584e-06
-3.40902e-09
1.00779e-06
-3.2811e-09
1.01018e-06
-3.16762e-09
1.0125e-06
-2.57845e-09
1.01521e-06
-2.06907e-09
1.01784e-06
-1.25621e-09
1.02092e-06
-1.47746e-10
1.02386e-06
6.22754e-10
1.02736e-06
2.37467e-09
1.03066e-06
3.74074e-09
1.03455e-06
5.84554e-09
1.03829e-06
7.87257e-09
1.0427e-06
1.04306e-08
1.04703e-06
1.28753e-08
1.0521e-06
1.64134e-08
1.05724e-06
1.95039e-08
1.06318e-06
2.39615e-08
1.06914e-06
2.7638e-08
1.07625e-06
3.28107e-08
1.08355e-06
3.74608e-08
1.09211e-06
4.34657e-08
1.10106e-06
4.91411e-08
1.1114e-06
5.61329e-08
1.12237e-06
6.24128e-08
1.13496e-06
6.98734e-08
7.68154e-08
1.14826e-06
1.0004e-06
-1.06937e-09
1.00138e-06
-2.54167e-09
1.00299e-06
-4.11194e-09
1.00481e-06
-4.8443e-09
1.00699e-06
-5.5901e-09
1.0092e-06
-5.49698e-09
1.01169e-06
-5.65627e-09
1.01425e-06
-5.14144e-09
1.01707e-06
-4.88617e-09
1.01998e-06
-4.16829e-09
1.02318e-06
-3.34597e-09
1.02639e-06
-2.58286e-09
1.03006e-06
-1.29764e-09
1.03365e-06
1.53012e-10
1.03772e-06
1.77491e-09
1.04187e-06
3.72343e-09
1.04649e-06
5.80974e-09
1.05126e-06
8.10379e-09
1.05661e-06
1.10587e-08
1.0622e-06
1.39142e-08
1.06849e-06
1.7672e-08
1.07494e-06
2.11899e-08
1.08237e-06
2.53804e-08
1.09019e-06
2.96382e-08
1.09906e-06
3.46047e-08
1.10848e-06
3.97146e-08
1.11907e-06
4.55442e-08
1.13035e-06
5.11373e-08
1.14298e-06
5.72417e-08
6.30473e-08
1.15675e-06
1.00046e-06
-1.529e-09
1.00182e-06
-3.90501e-09
1.00381e-06
-6.10001e-09
1.00603e-06
-7.06468e-09
1.00842e-06
-7.97898e-09
1.01088e-06
-7.95673e-09
1.01352e-06
-8.29301e-09
1.01632e-06
-7.94632e-09
1.01932e-06
-7.88308e-09
1.02249e-06
-7.34418e-09
1.02591e-06
-6.76239e-09
1.0294e-06
-6.06882e-09
1.03326e-06
-5.15589e-09
1.03718e-06
-3.76771e-09
1.04144e-06
-2.48553e-09
1.04595e-06
-7.88171e-10
1.05084e-06
9.22498e-10
1.05596e-06
2.97676e-09
1.06158e-06
5.43825e-09
1.06752e-06
7.97736e-09
1.07412e-06
1.10684e-08
1.08101e-06
1.42986e-08
1.08876e-06
1.76317e-08
1.097e-06
2.14003e-08
1.10606e-06
2.55416e-08
1.11576e-06
3.00227e-08
1.12653e-06
3.47701e-08
1.13813e-06
3.95347e-08
1.15089e-06
4.44856e-08
4.95805e-08
1.16436e-06
1.00087e-06
-2.40142e-09
1.00288e-06
-5.90846e-09
1.00531e-06
-8.53859e-09
1.00788e-06
-9.6345e-09
1.01045e-06
-1.05453e-08
1.01313e-06
-1.06379e-08
1.01598e-06
-1.11421e-08
1.01904e-06
-1.10061e-08
1.02225e-06
-1.109e-08
1.02567e-06
-1.07688e-08
1.02927e-06
-1.0356e-08
1.03298e-06
-9.78381e-09
1.03697e-06
-9.14083e-09
1.04109e-06
-7.88982e-09
1.04552e-06
-6.92205e-09
1.05028e-06
-5.54506e-09
1.05534e-06
-4.14062e-09
1.06074e-06
-2.42351e-09
1.06657e-06
-3.83624e-10
1.07278e-06
1.76488e-09
1.0796e-06
4.24838e-09
1.08685e-06
7.05171e-09
1.09484e-06
9.64231e-09
1.10338e-06
1.28512e-08
1.11262e-06
1.63036e-08
1.12253e-06
2.01121e-08
1.1334e-06
2.39072e-08
1.1451e-06
2.78299e-08
1.15798e-06
3.16114e-08
3.55914e-08
1.17196e-06
1.00181e-06
-4.21144e-09
1.00524e-06
-9.34059e-09
1.0085e-06
-1.17914e-08
1.01146e-06
-1.2595e-08
1.01421e-06
-1.32994e-08
1.0172e-06
-1.36296e-08
1.02031e-06
-1.42533e-08
1.02357e-06
-1.42673e-08
1.02684e-06
-1.43597e-08
1.03024e-06
-1.41616e-08
1.03371e-06
-1.38337e-08
1.03731e-06
-1.3384e-08
1.04106e-06
-1.28891e-08
1.04502e-06
-1.18466e-08
1.04927e-06
-1.11758e-08
1.05389e-06
-1.01622e-08
1.05878e-06
-9.02745e-09
1.06395e-06
-7.5993e-09
1.06961e-06
-6.04304e-09
1.07565e-06
-4.2686e-09
1.08232e-06
-2.43032e-09
1.08962e-06
-2.48378e-10
1.09752e-06
1.7497e-09
1.10596e-06
4.41277e-09
1.11508e-06
7.17837e-09
1.12498e-06
1.02172e-08
1.13591e-06
1.29777e-08
1.14778e-06
1.5956e-08
1.16067e-06
1.87245e-08
2.18608e-08
1.1744e-06
1.00301e-06
-7.22041e-09
1.00685e-06
-1.318e-08
1.0097e-06
-1.46466e-08
1.01186e-06
-1.47501e-08
1.01368e-06
-1.51252e-08
1.01554e-06
-1.54818e-08
1.01706e-06
-1.57814e-08
1.01842e-06
-1.56265e-08
1.01959e-06
-1.5521e-08
1.02063e-06
-1.5206e-08
1.02154e-06
-1.47491e-08
1.02243e-06
-1.42699e-08
1.02335e-06
-1.38127e-08
1.0246e-06
-1.3095e-08
1.02597e-06
-1.2546e-08
1.02752e-06
-1.17141e-08
1.02933e-06
-1.08329e-08
1.03164e-06
-9.90639e-09
1.03454e-06
-8.9481e-09
1.03793e-06
-7.65322e-09
1.04183e-06
-6.32945e-09
1.04649e-06
-4.90835e-09
1.05196e-06
-3.72649e-09
1.05852e-06
-2.14249e-09
1.06608e-06
-3.80157e-10
1.07474e-06
1.55542e-09
1.08438e-06
3.33679e-09
1.09522e-06
5.11605e-09
1.10733e-06
6.61684e-09
8.11006e-09
1.12108e-06
9.9278e-07
9.796e-07
9.64953e-07
9.50203e-07
9.35078e-07
9.19596e-07
9.03814e-07
8.88188e-07
8.72667e-07
8.57461e-07
8.42712e-07
8.28442e-07
8.14629e-07
8.01534e-07
7.88988e-07
7.77274e-07
7.66441e-07
7.56535e-07
7.47587e-07
7.39934e-07
7.33604e-07
7.28696e-07
7.24969e-07
7.22827e-07
7.22447e-07
7.24002e-07
7.27339e-07
7.32455e-07
7.39072e-07
7.47182e-07
2.38533e-07
-1.20468e-07
3.30111e-07
-9.15782e-08
4.19878e-07
-8.97672e-08
4.88326e-07
-6.84477e-08
5.45671e-07
-5.73447e-08
5.92436e-07
-4.67649e-08
6.42219e-07
-4.97832e-08
6.97349e-07
-5.51297e-08
7.5609e-07
-5.87418e-08
-1.30888e-07
8.86979e-07
6.79869e-07
-1.75221e-07
7.30152e-07
-1.41861e-07
7.73157e-07
-1.32773e-07
8.1542e-07
-1.10711e-07
8.4771e-07
-8.96342e-08
8.68558e-07
-6.7613e-08
9.13567e-07
-9.47924e-08
9.51047e-07
-9.26096e-08
1.0058e-06
-1.13492e-07
-1.57309e-07
1.03222e-06
8.80663e-07
-1.88574e-07
8.97908e-07
-1.59106e-07
8.9745e-07
-1.32315e-07
9.18483e-07
-1.31744e-07
9.34425e-07
-1.05576e-07
9.59965e-07
-9.31535e-08
9.63562e-07
-9.83896e-08
1.00959e-06
-1.38636e-07
1.03131e-06
-1.35211e-07
-1.86352e-07
1.06035e-06
9.55782e-07
-1.84288e-07
9.61175e-07
-1.64499e-07
9.64199e-07
-1.35339e-07
9.67037e-07
-1.34581e-07
9.80986e-07
-1.19525e-07
1.00024e-06
-1.12406e-07
1.00808e-06
-1.06235e-07
1.01677e-06
-1.47325e-07
1.03764e-06
-1.56079e-07
-1.99159e-07
1.05045e-06
9.95888e-07
-1.72084e-07
9.96051e-07
-1.64662e-07
9.95438e-07
-1.34725e-07
9.98276e-07
-1.37419e-07
9.99079e-07
-1.20329e-07
1.01507e-06
-1.284e-07
1.02237e-06
-1.13534e-07
1.02992e-06
-1.54869e-07
1.03699e-06
-1.63154e-07
-2.06253e-07
1.04408e-06
1.02468e-06
-1.64792e-07
1.01904e-06
-1.59019e-07
1.01794e-06
-1.33625e-07
1.01764e-06
-1.37118e-07
1.02166e-06
-1.24358e-07
1.02911e-06
-1.35849e-07
1.03739e-06
-1.21808e-07
1.03811e-06
-1.55591e-07
1.04218e-06
-1.67223e-07
-2.05902e-07
1.04183e-06
1.04508e-06
-1.55218e-07
1.03939e-06
-1.53322e-07
1.03762e-06
-1.31861e-07
1.03774e-06
-1.37238e-07
1.03676e-06
-1.23369e-07
1.03845e-06
-1.37545e-07
1.04308e-06
-1.26432e-07
1.04292e-06
-1.55431e-07
1.04255e-06
-1.66853e-07
-2.02755e-07
1.0394e-06
1.06463e-06
-1.47792e-07
1.05741e-06
-1.46094e-07
1.0541e-06
-1.28553e-07
1.05067e-06
-1.3381e-07
1.05023e-06
-1.22932e-07
1.04872e-06
-1.36034e-07
1.05109e-06
-1.28801e-07
1.04865e-06
-1.52984e-07
1.04479e-06
-1.63002e-07
-1.93979e-07
1.03602e-06
1.08075e-06
-1.39103e-07
1.07299e-06
-1.38333e-07
1.06827e-06
-1.23839e-07
1.06388e-06
-1.29421e-07
1.06083e-06
-1.19877e-07
1.05673e-06
-1.31937e-07
1.05537e-06
-1.27446e-07
1.05037e-06
-1.47984e-07
1.04406e-06
-1.56685e-07
-1.84771e-07
1.03485e-06
1.09513e-06
-1.30282e-07
1.08648e-06
-1.2968e-07
1.08054e-06
-1.17903e-07
1.07383e-06
-1.22705e-07
1.06947e-06
-1.15518e-07
1.06359e-06
-1.26063e-07
1.05956e-06
-1.23412e-07
1.05235e-06
-1.40772e-07
1.0446e-06
-1.48933e-07
-1.73394e-07
1.03322e-06
1.10766e-06
-1.20645e-07
1.09816e-06
-1.2018e-07
1.09083e-06
-1.10572e-07
1.08307e-06
-1.14941e-07
1.07679e-06
-1.09237e-07
1.06884e-06
-1.18118e-07
1.06249e-06
-1.17062e-07
1.05378e-06
-1.32062e-07
1.04388e-06
-1.3903e-07
-1.60322e-07
1.03081e-06
1.1185e-06
-1.10358e-07
1.10816e-06
-1.09846e-07
1.0997e-06
-1.02112e-07
1.09037e-06
-1.05607e-07
1.08258e-06
-1.01443e-07
1.07333e-06
-1.08869e-07
1.06492e-06
-1.08658e-07
1.05427e-06
-1.21409e-07
1.04303e-06
-1.27792e-07
-1.46388e-07
1.0291e-06
1.1281e-06
-9.92609e-08
1.117e-06
-9.87379e-08
1.10739e-06
-9.2511e-08
1.09703e-06
-9.5246e-08
1.08768e-06
-9.20916e-08
1.07703e-06
-9.82127e-08
1.06699e-06
-9.86256e-08
1.05503e-06
-1.09445e-07
1.04228e-06
-1.15038e-07
-1.30985e-07
1.02687e-06
1.13651e-06
-8.7506e-08
1.12462e-06
-8.68495e-08
1.11394e-06
-8.18336e-08
1.10253e-06
-8.38321e-08
1.09194e-06
-8.15101e-08
1.08014e-06
-8.64032e-08
1.06858e-06
-8.70694e-08
1.05532e-06
-9.61877e-08
1.0415e-06
-1.01212e-07
-1.14707e-07
1.02522e-06
1.14423e-06
-7.49889e-08
1.13166e-06
-7.42805e-08
1.12009e-06
-7.02624e-08
1.10781e-06
-7.15486e-08
1.09603e-06
-6.97389e-08
1.08319e-06
-7.35602e-08
1.07049e-06
-7.43643e-08
1.05607e-06
-8.17762e-08
1.04104e-06
-8.61734e-08
-9.73633e-08
1.02369e-06
1.15132e-06
-6.19522e-08
1.13803e-06
-6.09883e-08
1.12551e-06
-5.77411e-08
1.11231e-06
-5.83514e-08
1.09953e-06
-5.69656e-08
1.08573e-06
-5.97524e-08
1.07196e-06
-6.05944e-08
1.05663e-06
-6.64492e-08
1.04075e-06
-7.0293e-08
-7.92963e-08
1.02268e-06
1.1581e-06
-4.80849e-08
1.14403e-06
-4.69224e-08
1.13064e-06
-4.43451e-08
1.11651e-06
-4.42293e-08
1.10268e-06
-4.31277e-08
1.08778e-06
-4.48578e-08
1.07288e-06
-4.56969e-08
1.05639e-06
-4.99542e-08
1.03935e-06
-5.32548e-08
-6.00535e-08
1.02011e-06
1.15895e-06
-3.26432e-08
1.1432e-06
-3.11634e-08
1.12804e-06
-2.91874e-08
1.11229e-06
-2.8477e-08
1.09687e-06
-2.77149e-08
1.08053e-06
-2.85147e-08
1.06418e-06
-2.9343e-08
1.04627e-06
-3.20533e-08
1.02775e-06
-3.47255e-08
-3.92723e-08
1.00696e-06
1.10247e-06
-1.40339e-08
1.08455e-06
-1.32473e-08
1.06753e-06
-1.2164e-08
1.05044e-06
-1.13926e-08
1.03357e-06
-1.08406e-08
1.01606e-06
-1.10026e-08
9.98256e-07
-1.15415e-08
9.79051e-07
-1.2848e-08
9.58866e-07
-1.45409e-08
-1.68425e-08
9.36436e-07
7.33148e-07
7.19901e-07
7.07737e-07
6.96344e-07
6.85503e-07
6.74501e-07
6.62959e-07
6.50111e-07
6.35571e-07
6.18728e-07
1.22844e-07
-1.22844e-07
1.38371e-07
-1.55268e-08
1.18451e-07
1.99202e-08
1.07176e-07
1.1275e-08
-5.33823e-08
1.60558e-07
-3.58153e-07
3.04771e-07
-6.25575e-07
2.67422e-07
-8.07098e-07
1.81523e-07
-9.1258e-07
1.05482e-07
-9.52792e-07
4.02117e-08
-9.38729e-07
-1.4063e-08
-8.89374e-07
-4.93544e-08
-8.14213e-07
-7.51608e-08
-7.22945e-07
-9.12689e-08
-6.16823e-07
-1.06122e-07
-5.00164e-07
-1.16658e-07
-3.67599e-07
-1.32565e-07
-2.26903e-07
-1.40696e-07
-9.20401e-08
-1.34863e-07
3.80859e-08
-1.30126e-07
1.52257e-07
-1.14172e-07
2.47229e-07
-9.49717e-08
3.20781e-07
-7.35515e-08
3.74246e-07
-5.34657e-08
4.10423e-07
-3.6176e-08
4.33271e-07
-2.28489e-08
4.46257e-07
-1.2986e-08
4.52131e-07
-5.87321e-09
4.51926e-07
2.04164e-10
4.46164e-07
5.76266e-09
4.34556e-07
1.1608e-08
4.17828e-07
1.67274e-08
3.97318e-07
2.05102e-08
3.75548e-07
2.17697e-08
3.54373e-07
2.11754e-08
3.36007e-07
1.83664e-08
3.20587e-07
1.54195e-08
3.09029e-07
1.15585e-08
2.99729e-07
9.29984e-09
6.12021e-09
9.08441e-08
-2.13688e-07
1.43028e-07
-6.77104e-08
1.06435e-07
5.65126e-08
-9.83314e-08
2.16042e-07
-3.72303e-07
4.3453e-07
-5.93236e-07
5.25703e-07
-7.5259e-07
4.26776e-07
-8.63505e-07
2.92438e-07
-9.21403e-07
1.6338e-07
-9.291e-07
4.79089e-08
-8.92585e-07
-5.05772e-08
-8.25051e-07
-1.16889e-07
-7.38131e-07
-1.62081e-07
-6.38862e-07
-1.90538e-07
-5.25404e-07
-2.1958e-07
-4.0261e-07
-2.39452e-07
-2.68944e-07
-2.66232e-07
-1.31296e-07
-2.78344e-07
6.98017e-09
-2.73139e-07
1.38046e-07
-2.61192e-07
2.55136e-07
-2.31261e-07
3.55335e-07
-1.95171e-07
4.37337e-07
-1.55553e-07
5.01734e-07
-1.17863e-07
5.50206e-07
-8.46475e-08
5.86338e-07
-5.89815e-08
6.13379e-07
-4.00267e-08
6.34175e-07
-2.66693e-08
6.50266e-07
-1.5887e-08
6.63036e-07
-7.0073e-09
6.72881e-07
1.76341e-09
6.79946e-07
9.6624e-09
6.83449e-07
1.70074e-08
6.83002e-07
2.22164e-08
6.78345e-07
2.5832e-08
6.70913e-07
2.57988e-08
6.61575e-07
2.47574e-08
6.52819e-07
2.03141e-08
6.44191e-07
1.79284e-08
1.23947e-08
1.20493e-08
-2.25738e-07
-5.0329e-08
-5.33213e-09
-1.11157e-07
1.17341e-07
-2.60213e-07
3.65098e-07
-4.09003e-07
5.8332e-07
-5.30326e-07
6.47026e-07
-6.22147e-07
5.18597e-07
-6.87301e-07
3.57592e-07
-7.19671e-07
1.95749e-07
-7.11896e-07
4.01344e-08
-6.67023e-07
-9.54504e-08
-5.95311e-07
-1.88601e-07
-5.0778e-07
-2.49612e-07
-4.14351e-07
-2.83966e-07
-3.12577e-07
-3.21354e-07
-1.99691e-07
-3.52338e-07
-8.27407e-08
-3.83182e-07
3.63543e-08
-3.97439e-07
1.54175e-07
-3.9096e-07
2.613e-07
-3.68316e-07
3.56506e-07
-3.26468e-07
4.36779e-07
-2.75444e-07
5.02435e-07
-2.2121e-07
5.55079e-07
-1.70507e-07
5.95586e-07
-1.25155e-07
6.26014e-07
-8.94096e-08
6.49613e-07
-6.36252e-08
6.69388e-07
-4.64441e-08
6.86346e-07
-3.28454e-08
7.00875e-07
-2.15361e-08
7.13722e-07
-1.10842e-08
7.26033e-07
-2.64791e-09
7.38216e-07
4.82455e-09
7.49531e-07
1.09007e-08
7.58412e-07
1.69517e-08
7.63978e-07
2.02321e-08
7.65135e-07
2.36005e-08
7.63818e-07
2.16314e-08
7.59706e-07
2.20402e-08
1.62546e-08
-1.36124e-09
-2.24376e-07
-7.2079e-08
6.53857e-08
-1.3608e-07
1.81341e-07
-2.56441e-07
4.85459e-07
-3.47633e-07
6.74512e-07
-3.97673e-07
6.97067e-07
-4.33355e-07
5.54279e-07
-4.68751e-07
3.92988e-07
-4.87356e-07
2.14354e-07
-4.76695e-07
2.94732e-08
-4.29818e-07
-1.42327e-07
-3.57335e-07
-2.61084e-07
-2.74404e-07
-3.32544e-07
-1.84568e-07
-3.73802e-07
-9.02506e-08
-4.15672e-07
1.13473e-08
-4.53936e-07
1.16204e-07
-4.88038e-07
2.21774e-07
-5.03009e-07
3.20936e-07
-4.90122e-07
4.03491e-07
-4.50871e-07
4.72397e-07
-3.95374e-07
5.29089e-07
-3.32135e-07
5.73396e-07
-2.65516e-07
6.08235e-07
-2.05346e-07
6.36404e-07
-1.53324e-07
6.57906e-07
-1.10911e-07
6.73767e-07
-7.94864e-08
6.87443e-07
-6.01201e-08
7.0146e-07
-4.68624e-08
7.15162e-07
-3.5238e-08
7.2678e-07
-2.27031e-08
7.35745e-07
-1.16122e-08
7.43589e-07
-3.02013e-09
7.52193e-07
2.29726e-09
7.61531e-07
7.6141e-09
7.71396e-07
1.03671e-08
7.79177e-07
1.58191e-08
7.84858e-07
1.59506e-08
7.87473e-07
1.94254e-08
1.66827e-08
-3.73383e-08
-1.87038e-07
-1.51045e-07
1.79093e-07
-1.57749e-07
1.88045e-07
-1.56036e-07
4.83745e-07
-1.49155e-07
6.67631e-07
-1.46373e-07
6.94286e-07
-1.63588e-07
5.71493e-07
-1.85993e-07
4.15392e-07
-1.93705e-07
2.22066e-07
-1.80206e-07
1.59745e-08
-1.38132e-07
-1.84401e-07
-7.68234e-08
-3.22392e-07
-8.27377e-09
-4.01094e-07
6.40329e-08
-4.46109e-07
1.40054e-07
-4.91693e-07
2.25649e-07
-5.39532e-07
3.13693e-07
-5.76083e-07
3.97194e-07
-5.86509e-07
4.74924e-07
-5.67852e-07
5.35303e-07
-5.11249e-07
5.75442e-07
-4.35513e-07
6.05238e-07
-3.61931e-07
6.2868e-07
-2.88958e-07
6.45483e-07
-2.2215e-07
6.59783e-07
-1.67623e-07
6.73556e-07
-1.24685e-07
6.84397e-07
-9.03272e-08
6.92104e-07
-6.78273e-08
7.00312e-07
-5.50704e-08
7.11618e-07
-4.65438e-08
7.24433e-07
-3.55186e-08
7.34803e-07
-2.19815e-08
7.40728e-07
-8.94556e-09
7.43564e-07
-5.39021e-10
7.46266e-07
4.91217e-09
7.50533e-07
6.10015e-09
7.57233e-07
9.11921e-09
7.642e-07
8.98375e-09
7.72297e-07
1.13283e-08
1.11044e-08
-1.34415e-07
-5.26227e-08
-1.31079e-07
1.75756e-07
-4.88125e-08
1.05779e-07
-2.04189e-08
4.55352e-07
1.92455e-08
6.27966e-07
6.80623e-08
6.45469e-07
9.48869e-08
5.44669e-07
1.08732e-07
4.01547e-07
1.23793e-07
2.07005e-07
1.50015e-07
-1.02476e-08
1.85409e-07
-2.19795e-07
2.25649e-07
-3.62632e-07
2.681e-07
-4.43545e-07
3.16454e-07
-4.94462e-07
3.71986e-07
-5.47225e-07
4.36385e-07
-6.0393e-07
5.0223e-07
-6.41928e-07
5.56617e-07
-6.40896e-07
5.97521e-07
-6.08757e-07
6.31898e-07
-5.45626e-07
6.51685e-07
-4.55301e-07
6.57818e-07
-3.68064e-07
6.62581e-07
-2.9372e-07
6.67568e-07
-2.27138e-07
6.71687e-07
-1.71742e-07
6.78504e-07
-1.31502e-07
6.88021e-07
-9.98442e-08
6.95937e-07
-7.57437e-08
7.00791e-07
-5.99243e-08
7.06033e-07
-5.17855e-08
7.14955e-07
-4.4441e-08
7.25843e-07
-3.28692e-08
7.34698e-07
-1.78004e-08
7.37875e-07
-3.71596e-09
7.37349e-07
5.43776e-09
7.34463e-07
8.98681e-09
7.34989e-07
8.59297e-09
7.37244e-07
6.72813e-09
7.43957e-07
4.61577e-09
2.75346e-09
-2.16825e-07
1.64202e-07
-1.0351e-07
6.24415e-08
-3.39546e-08
3.62231e-08
1.75128e-07
2.4627e-07
2.8639e-07
5.16705e-07
3.60928e-07
5.7093e-07
4.00996e-07
5.04601e-07
4.30901e-07
3.71642e-07
4.55762e-07
1.82144e-07
4.7511e-07
-2.95952e-08
4.89848e-07
-2.34533e-07
5.0356e-07
-3.76344e-07
5.20662e-07
-4.60647e-07
5.4831e-07
-5.22111e-07
5.88662e-07
-5.87577e-07
6.30902e-07
-6.46169e-07
6.67167e-07
-6.78194e-07
6.92259e-07
-6.65988e-07
6.94222e-07
-6.1072e-07
6.86628e-07
-5.38033e-07
6.832e-07
-4.51872e-07
6.76981e-07
-3.61845e-07
6.70185e-07
-2.86925e-07
6.70004e-07
-2.26956e-07
6.74315e-07
-1.76052e-07
6.8085e-07
-1.38037e-07
6.90397e-07
-1.09391e-07
7.01092e-07
-8.64386e-08
7.08605e-07
-6.74376e-08
7.11737e-07
-5.49176e-08
7.14521e-07
-4.72242e-08
7.19648e-07
-3.7997e-08
7.27967e-07
-2.61188e-08
7.33979e-07
-9.72865e-09
7.37584e-07
1.83333e-09
7.35654e-07
1.09171e-08
7.33385e-07
1.08614e-08
7.31536e-07
8.57779e-09
7.32026e-07
4.125e-09
-2.73974e-09
6.68232e-07
3.82949e-07
4.41023e-07
2.8965e-07
2.59703e-07
2.17543e-07
2.86317e-07
2.19656e-07
4.42682e-07
3.6034e-07
5.89375e-07
4.24237e-07
6.85544e-07
4.08432e-07
7.46184e-07
3.11002e-07
7.78621e-07
1.49707e-07
7.90188e-07
-4.11624e-08
7.84101e-07
-2.28446e-07
7.77532e-07
-3.69775e-07
7.84965e-07
-4.6808e-07
8.09052e-07
-5.46197e-07
8.38984e-07
-6.17509e-07
8.59844e-07
-6.6703e-07
8.58148e-07
-6.76498e-07
8.3964e-07
-6.47479e-07
8.10888e-07
-5.81968e-07
7.72171e-07
-4.99316e-07
7.39573e-07
-4.19273e-07
7.21011e-07
-3.43283e-07
7.10084e-07
-2.75998e-07
7.06177e-07
-2.23049e-07
7.10736e-07
-1.80611e-07
7.21352e-07
-1.48653e-07
7.35201e-07
-1.23241e-07
7.49597e-07
-1.00834e-07
7.60949e-07
-7.87897e-08
7.66132e-07
-6.01004e-08
7.66861e-07
-4.79533e-08
7.65814e-07
-3.695e-08
7.68038e-07
-2.83426e-08
7.72305e-07
-1.39962e-08
7.78749e-07
-4.61066e-09
7.84271e-07
5.39566e-09
7.87485e-07
7.64704e-09
7.90103e-07
5.96002e-09
7.89893e-07
4.33445e-09
-3.64673e-09
1.01097e-06
4.04197e-07
9.52962e-07
3.47659e-07
8.40778e-07
3.29727e-07
7.30148e-07
3.30285e-07
7.10941e-07
3.79548e-07
7.65131e-07
3.70047e-07
8.4082e-07
3.32743e-07
9.10832e-07
2.4099e-07
9.59229e-07
1.0131e-07
9.8167e-07
-6.36025e-08
9.84602e-07
-2.31378e-07
9.8475e-07
-3.69924e-07
9.9241e-07
-4.7574e-07
1.01066e-06
-5.64449e-07
1.02166e-06
-6.28512e-07
1.00608e-06
-6.51446e-07
9.63184e-07
-6.33601e-07
9.00184e-07
-5.8448e-07
8.38231e-07
-5.20015e-07
7.92073e-07
-4.53158e-07
7.60411e-07
-3.87611e-07
7.43249e-07
-3.26122e-07
7.38601e-07
-2.71349e-07
7.4011e-07
-2.24559e-07
7.4296e-07
-1.83461e-07
7.47103e-07
-1.52797e-07
7.55205e-07
-1.31343e-07
7.67078e-07
-1.12707e-07
7.78474e-07
-9.01848e-08
7.8474e-07
-6.63671e-08
7.8619e-07
-4.94028e-08
7.85329e-07
-3.6089e-08
7.85425e-07
-2.84388e-08
7.87389e-07
-1.59608e-08
7.90346e-07
-7.56726e-09
7.95115e-07
6.26645e-10
8.00298e-07
2.46379e-09
8.06177e-07
8.15928e-11
8.12665e-07
-2.15356e-09
-7.04458e-09
1.07953e-06
3.85014e-07
1.07477e-06
3.52418e-07
1.0638e-06
3.40702e-07
1.05698e-06
3.37099e-07
1.06398e-06
3.72557e-07
1.08427e-06
3.49754e-07
1.12273e-06
2.9428e-07
1.16706e-06
1.96666e-07
1.19647e-06
7.18907e-08
1.20942e-06
-7.65494e-08
1.21381e-06
-2.35771e-07
1.20743e-06
-3.63538e-07
1.18881e-06
-4.57122e-07
1.1615e-06
-5.37139e-07
1.12495e-06
-5.91962e-07
1.0702e-06
-5.96694e-07
9.974e-07
-5.60802e-07
9.23008e-07
-5.10087e-07
8.58544e-07
-4.55551e-07
8.12353e-07
-4.06967e-07
7.87445e-07
-3.62703e-07
7.76616e-07
-3.15293e-07
7.73841e-07
-2.68574e-07
7.7915e-07
-2.29867e-07
7.88193e-07
-1.92504e-07
7.9201e-07
-1.56614e-07
7.89292e-07
-1.28625e-07
7.87125e-07
-1.1054e-07
7.8905e-07
-9.21097e-08
7.91589e-07
-6.89059e-08
7.90907e-07
-4.87208e-08
7.89644e-07
-3.48266e-08
7.91581e-07
-3.03751e-08
7.98249e-07
-2.26292e-08
8.06498e-07
-1.58159e-08
8.11138e-07
-4.01382e-09
8.13105e-07
4.96678e-10
8.11205e-07
1.98251e-09
8.10467e-07
-1.41599e-09
-9.08766e-09
1.08029e-06
3.55173e-07
1.10557e-06
3.27135e-07
1.12759e-06
3.18687e-07
1.15643e-06
3.08254e-07
1.20833e-06
3.20661e-07
1.25377e-06
3.04313e-07
1.29874e-06
2.49306e-07
1.34011e-06
1.55297e-07
1.36215e-06
4.98512e-08
1.35985e-06
-7.42492e-08
1.34454e-06
-2.20461e-07
1.31553e-06
-3.34526e-07
1.26678e-06
-4.08375e-07
1.20123e-06
-4.71582e-07
1.12392e-06
-5.14656e-07
1.04827e-06
-5.21041e-07
9.82876e-07
-4.9541e-07
9.30856e-07
-4.58067e-07
8.952e-07
-4.19896e-07
8.69001e-07