/*--------------------------------*- C++ -*----------------------------------*\
| =========                 |                                                 |
| \\      /  F ield         | OpenFOAM: The Open Source CFD Toolbox           |
|  \\    /   O peration     | Version:  2112                                  |
|   \\  /    A nd           | Website:  www.openfoam.com                      |
|    \\/     M anipulation  |                                                 |
\*---------------------------------------------------------------------------*/
FoamFile
{
    version     2.0;
    format      ascii;
    arch        "LSB;label=32;scalar=64";
    class       volVectorField;
    location    "0.44";
    object      U;
}
// * * * * * * * * * * * * * * * * * * * * * * * * * * * * * * * * * * * * * //

dimensions      [0 1 -1 0 0 0 0];

internalField   nonuniform List<vector> 
1880
(
(0.0988884 0.000559912 0)
(0.0985392 0.00120199 0)
(0.0972007 0.00126923 0)
(0.0959764 0.00138443 0)
(0.0939929 0.00130509 0)
(0.0925353 0.00146239 0)
(0.0904084 0.00135684 0)
(0.0889676 0.00149849 0)
(0.0868203 0.00136876 0)
(0.0852882 0.00149647 0)
(0.0831327 0.00134832 0)
(0.0814947 0.00146326 0)
(0.0792489 0.00136158 0)
(0.0776047 0.00149516 0)
(0.075065 0.00137993 0)
(0.0735972 0.00149722 0)
(0.0704898 0.00147718 0)
(0.0692501 0.00159004 0)
(0.0654729 0.00161232 0)
(0.0642964 0.00172781 0)
(0.0598612 0.00174972 0)
(0.0584598 0.00212407 0)
(0.0532598 0.00205063 0)
(0.0511986 0.002555 0)
(0.0454277 0.00245488 0)
(0.0418551 0.00327465 0)
(0.0355731 0.00343117 0)
(0.029443 0.00388736 0)
(0.023011 0.00426741 0)
(0.0137973 0.00255751 0)
(0.0998597 0.000815073 0)
(0.100264 0.00123232 0)
(0.100832 0.00183903 0)
(0.100595 0.00158065 0)
(0.101582 0.00202388 0)
(0.100639 0.00178998 0)
(0.101731 0.00219427 0)
(0.100603 0.00200023 0)
(0.101437 0.00229625 0)
(0.100423 0.00220877 0)
(0.101055 0.00229122 0)
(0.0998416 0.00254868 0)
(0.10054 0.00224426 0)
(0.0989764 0.00285649 0)
(0.0995567 0.00248361 0)
(0.0981171 0.00294626 0)
(0.0979728 0.0030634 0)
(0.0966664 0.00308583 0)
(0.0965583 0.00348318 0)
(0.0939674 0.00378943 0)
(0.0949978 0.003935 0)
(0.0904804 0.00452433 0)
(0.0921904 0.00515207 0)
(0.086572 0.00526351 0)
(0.0881402 0.00653945 0)
(0.0806229 0.00728264 0)
(0.0832354 0.00793322 0)
(0.0722344 0.00975981 0)
(0.0761835 0.0103182 0)
(0.0598035 0.0116793 0)
(0.100218 0.000413442 0)
(0.0998884 0.000383667 0)
(0.100804 0.00128125 0)
(0.10044 0.000887259 0)
(0.101416 0.00152791 0)
(0.100937 0.00135417 0)
(0.101767 0.0015068 0)
(0.101359 0.00173292 0)
(0.101968 0.00177515 0)
(0.101606 0.00170391 0)
(0.10224 0.00238677 0)
(0.101542 0.00162563 0)
(0.10263 0.00277285 0)
(0.101229 0.00204807 0)
(0.102686 0.00290478 0)
(0.10117 0.00246876 0)
(0.102114 0.003701 0)
(0.10103 0.00243143 0)
(0.101648 0.00480721 0)
(0.0998609 0.00313649 0)
(0.101524 0.00521168 0)
(0.0981476 0.00487344 0)
(0.100647 0.00634688 0)
(0.0966036 0.00578408 0)
(0.0987133 0.00926796 0)
(0.0942676 0.00716138 0)
(0.0967622 0.0120038 0)
(0.0903253 0.0106084 0)
(0.0940807 0.0155706 0)
(0.0849629 0.0132869 0)
(0.100216 0.000423861 0)
(0.0997946 0.000409941 0)
(0.100584 0.00120495 0)
(0.10019 0.000979112 0)
(0.100949 0.00155217 0)
(0.100673 0.00136344 0)
(0.101286 0.00166197 0)
(0.10102 0.00167532 0)
(0.101673 0.00194159 0)
(0.101156 0.00176552 0)
(0.102024 0.00244613 0)
(0.101315 0.00184051 0)
(0.102231 0.00282707 0)
(0.101427 0.00231024 0)
(0.102346 0.00300824 0)
(0.101411 0.00285093 0)
(0.102338 0.00374174 0)
(0.101318 0.00304565 0)
(0.102102 0.00484781 0)
(0.101104 0.00392236 0)
(0.101816 0.00539073 0)
(0.100278 0.00576058 0)
(0.101887 0.00654945 0)
(0.0990802 0.00721985 0)
(0.101207 0.00901932 0)
(0.0985826 0.00943332 0)
(0.0996733 0.0116753 0)
(0.0976362 0.0127851 0)
(0.0987496 0.0156479 0)
(0.0960559 0.0174373 0)
(0.100076 0.000361568 0)
(0.099969 0.000122579 0)
(0.100337 0.000976025 0)
(0.100266 0.000565024 0)
(0.100628 0.00131182 0)
(0.10064 0.000965053 0)
(0.100945 0.0014807 0)
(0.101006 0.00119251 0)
(0.101257 0.00192396 0)
(0.101268 0.00115088 0)
(0.101484 0.00255274 0)
(0.101557 0.00126091 0)
(0.101648 0.00288543 0)
(0.101771 0.0018874 0)
(0.101777 0.00306873 0)
(0.10188 0.00245705 0)
(0.101843 0.0038771 0)
(0.101873 0.00276887 0)
(0.101809 0.00496719 0)
(0.101832 0.00375653 0)
(0.101592 0.00570316 0)
(0.10155 0.00539242 0)
(0.101613 0.00720389 0)
(0.101055 0.00679154 0)
(0.101309 0.00980193 0)
(0.100902 0.00896797 0)
(0.100786 0.012518 0)
(0.100834 0.0123689 0)
(0.100387 0.0164048 0)
(0.101009 0.0166163 0)
(0.100095 0.000249119 0)
(0.0999676 0.000205614 0)
(0.100249 0.000785093 0)
(0.100282 0.000576659 0)
(0.100415 0.001179 0)
(0.100632 0.000909727 0)
(0.100707 0.0014223 0)
(0.100945 0.00115285 0)
(0.101074 0.00180317 0)
(0.101211 0.00123189 0)
(0.101272 0.00235676 0)
(0.101607 0.0013909 0)
(0.101394 0.00274915 0)
(0.101872 0.00199179 0)
(0.101643 0.00298127 0)
(0.101974 0.00264903 0)
(0.10184 0.00370375 0)
(0.102072 0.00312688 0)
(0.101885 0.00472954 0)
(0.102216 0.00419226 0)
(0.101866 0.00554786 0)
(0.102083 0.0057788 0)
(0.102131 0.00705927 0)
(0.101917 0.00736371 0)
(0.102048 0.00934257 0)
(0.102258 0.00973957 0)
(0.10198 0.0120237 0)
(0.102489 0.0128261 0)
(0.102517 0.0156394 0)
(0.103005 0.0172421 0)
(0.100053 0.000231074 0)
(0.0999948 8.95664e-05 0)
(0.100197 0.000685822 0)
(0.100261 0.000377659 0)
(0.100343 0.00102963 0)
(0.10058 0.000676619 0)
(0.100583 0.0012905 0)
(0.10092 0.000887547 0)
(0.100935 0.00167919 0)
(0.101208 0.000995465 0)
(0.101184 0.00216924 0)
(0.101601 0.00124117 0)
(0.10137 0.00252822 0)
(0.101918 0.00184075 0)
(0.101655 0.00286365 0)
(0.102124 0.00244861 0)
(0.101933 0.00361141 0)
(0.102305 0.00301781 0)
(0.102125 0.00459725 0)
(0.102602 0.00408685 0)
(0.102216 0.00555742 0)
(0.102743 0.00551207 0)
(0.102604 0.00717075 0)
(0.102887 0.00705046 0)
(0.10285 0.009392 0)
(0.103415 0.00936507 0)
(0.103218 0.0119382 0)
(0.104122 0.0122722 0)
(0.104019 0.015361 0)
(0.105112 0.0161192 0)
(0.100068 0.000130256 0)
(0.0999915 0.000133002 0)
(0.100157 0.000518008 0)
(0.100255 0.000343722 0)
(0.100289 0.000851449 0)
(0.100544 0.000580743 0)
(0.100551 0.00112161 0)
(0.100849 0.000800304 0)
(0.100943 0.00145768 0)
(0.101157 0.000981965 0)
(0.101214 0.00188378 0)
(0.101596 0.00126399 0)
(0.101454 0.00225652 0)
(0.101943 0.00183349 0)
(0.101822 0.00264155 0)
(0.102225 0.00243824 0)
(0.102176 0.00337496 0)
(0.10252 0.00306286 0)
(0.102498 0.00431678 0)
(0.10292 0.00413782 0)
(0.10279 0.0053101 0)
(0.103237 0.00550352 0)
(0.10332 0.0068596 0)
(0.10369 0.0070857 0)
(0.103774 0.00888724 0)
(0.10445 0.00930486 0)
(0.104569 0.0113376 0)
(0.105369 0.0120095 0)
(0.10577 0.0143628 0)
(0.106741 0.0156215 0)
(0.10006 0.00011404 0)
(0.0999857 7.54281e-05 0)
(0.100143 0.000420183 0)
(0.100234 0.000248186 0)
(0.100283 0.000686476 0)
(0.100525 0.000458948 0)
(0.100539 0.000932214 0)
(0.100841 0.000665698 0)
(0.100955 0.00124013 0)
(0.101155 0.000870709 0)
(0.101289 0.00161679 0)
(0.101607 0.00117238 0)
(0.101592 0.00199106 0)
(0.102013 0.00169377 0)
(0.102005 0.00242664 0)
(0.102395 0.00227388 0)
(0.102436 0.00313342 0)
(0.102786 0.00293176 0)
(0.102887 0.0040389 0)
(0.103312 0.00396046 0)
(0.103327 0.00507794 0)
(0.103807 0.00521951 0)
(0.104014 0.00658245 0)
(0.104484 0.00675279 0)
(0.104716 0.0084644 0)
(0.105447 0.00886282 0)
(0.105782 0.0107362 0)
(0.106675 0.0113446 0)
(0.107246 0.0135204 0)
(0.108325 0.0145103 0)
(0.100053 5.66488e-05 0)
(0.0999984 7.02752e-05 0)
(0.100125 0.000295027 0)
(0.100229 0.000186401 0)
(0.100294 0.000509217 0)
(0.100503 0.000356189 0)
(0.100582 0.000715231 0)
(0.100823 0.0005633 0)
(0.101017 0.000969055 0)
(0.10118 0.000793493 0)
(0.101379 0.00130421 0)
(0.101672 0.00108959 0)
(0.101747 0.001687 0)
(0.102115 0.0015629 0)
(0.102235 0.00214626 0)
(0.10258 0.00212401 0)
(0.102737 0.0028163 0)
(0.103072 0.00279836 0)
(0.103308 0.00366888 0)
(0.103707 0.00378908 0)
(0.10389 0.00469812 0)
(0.10437 0.00497024 0)
(0.104714 0.00610703 0)
(0.105253 0.00645246 0)
(0.105622 0.00784501 0)
(0.106379 0.00839195 0)
(0.10695 0.00994185 0)
(0.107832 0.0106873 0)
(0.108623 0.0124063 0)
(0.109726 0.0134844 0)
(0.100043 3.50181e-05 0)
(0.100004 3.0329e-05 0)
(0.100115 0.000184732 0)
(0.100228 0.000106212 0)
(0.100311 0.000328448 0)
(0.100515 0.000239371 0)
(0.100626 0.000496238 0)
(0.100853 0.000419486 0)
(0.101089 0.000719543 0)
(0.101239 0.000642274 0)
(0.101496 0.00102011 0)
(0.101769 0.000926937 0)
(0.101917 0.00138783 0)
(0.102269 0.00136077 0)
(0.102465 0.00184477 0)
(0.102812 0.00189645 0)
(0.103048 0.00247535 0)
(0.103388 0.00255469 0)
(0.10373 0.00328165 0)
(0.104136 0.00348113 0)
(0.104428 0.00428352 0)
(0.104949 0.00457804 0)
(0.105396 0.00558566 0)
(0.105982 0.00597814 0)
(0.106491 0.0071664 0)
(0.107272 0.00775998 0)
(0.107996 0.00908088 0)
(0.10893 0.0098216 0)
(0.109851 0.0112904 0)
(0.110995 0.0122567 0)
(0.100032 1.24063e-06 0)
(0.100019 -4.04667e-06 0)
(0.100114 6.98962e-05 0)
(0.100234 2.25137e-05 0)
(0.100348 0.000149979 0)
(0.100534 0.000119494 0)
(0.100696 0.000273949 0)
(0.100905 0.000281416 0)
(0.101176 0.000463214 0)
(0.101337 0.000490494 0)
(0.10162 0.000741832 0)
(0.101905 0.000749231 0)
(0.102103 0.00109242 0)
(0.102443 0.00114772 0)
(0.102721 0.00152717 0)
(0.103062 0.0016616 0)
(0.10337 0.00210848 0)
(0.103728 0.00229208 0)
(0.10415 0.00286188 0)
(0.104576 0.00314863 0)
(0.104959 0.00381356 0)
(0.105517 0.0041654 0)
(0.106056 0.00499566 0)
(0.106686 0.00546291 0)
(0.107308 0.00643354 0)
(0.108111 0.007065 0)
(0.108963 0.00815644 0)
(0.109931 0.00891739 0)
(0.110948 0.0101133 0)
(0.112127 0.0110233 0)
(0.100023 -2.40353e-05 0)
(0.10003 -5.44676e-05 0)
(0.100121 -5.2386e-05 0)
(0.100255 -9.25092e-05 0)
(0.100395 -4.66878e-05 0)
(0.100589 -5.3023e-05 0)
(0.100783 2.88235e-05 0)
(0.100995 6.38771e-05 0)
(0.101291 0.000179512 0)
(0.101468 0.00024115 0)
(0.101771 0.000422063 0)
(0.102074 0.000472014 0)
(0.102304 0.000735202 0)
(0.102656 0.000835523 0)
(0.10299 0.00114033 0)
(0.103339 0.00131369 0)
(0.103706 0.00167507 0)
(0.104087 0.00190116 0)
(0.10457 0.00237241 0)
(0.105029 0.00268424 0)
(0.105475 0.00325724 0)
(0.106076 0.00362066 0)
(0.106697 0.00431988 0)
(0.107353 0.00480511 0)
(0.108069 0.00560719 0)
(0.108906 0.00623173 0)
(0.10984 0.00714906 0)
(0.110849 0.00786588 0)
(0.111937 0.00886453 0)
(0.113146 0.00967871 0)
(0.100015 -5.2122e-05 0)
(0.100042 -0.00011276 0)
(0.100135 -0.000172762 0)
(0.10028 -0.000210561 0)
(0.100452 -0.000223551 0)
(0.100655 -0.00020618 0)
(0.100882 -0.00017734 0)
(0.101109 -0.000113027 0)
(0.101418 -4.58413e-05 0)
(0.101627 4.16503e-05 0)
(0.101942 0.000175021 0)
(0.102269 0.000250632 0)
(0.102535 0.000450473 0)
(0.102895 0.000582965 0)
(0.103282 0.000817291 0)
(0.103644 0.00102115 0)
(0.104055 0.00130223 0)
(0.104473 0.00155055 0)
(0.104999 0.00193403 0)
(0.105489 0.00225257 0)
(0.105995 0.00273341 0)
(0.106631 0.00310767 0)
(0.10732 0.00367531 0)
(0.108003 0.00415823 0)
(0.108791 0.00481414 0)
(0.109661 0.00540786 0)
(0.110653 0.00617034 0)
(0.111695 0.00684005 0)
(0.112832 0.0076629 0)
(0.114058 0.00838906 0)
(0.100009 -8.78507e-05 0)
(0.100061 -0.000208122 0)
(0.100175 -0.000341032 0)
(0.100344 -0.000408696 0)
(0.100555 -0.000473691 0)
(0.100779 -0.000465518 0)
(0.101035 -0.00047163 0)
(0.101282 -0.00041662 0)
(0.1016 -0.00038038 0)
(0.101835 -0.000302299 0)
(0.102161 -0.000207769 0)
(0.102505 -0.000131998 0)
(0.1028 1.40879e-05 0)
(0.103171 0.000153239 0)
(0.103601 0.000338023 0)
(0.103976 0.000539327 0)
(0.104425 0.000769287 0)
(0.104875 0.00100983 0)
(0.105434 0.0013336 0)
(0.105955 0.00163265 0)
(0.106516 0.00204412 0)
(0.107177 0.00240555 0)
(0.107926 0.00287358 0)
(0.108627 0.00332495 0)
(0.109472 0.00387128 0)
(0.110374 0.00441259 0)
(0.111412 0.00505372 0)
(0.112474 0.00565077 0)
(0.113656 0.00632779 0)
(0.114889 0.00696262 0)
(0.100005 -0.000117504 0)
(0.100077 -0.00028407 0)
(0.100223 -0.000458628 0)
(0.100423 -0.000534848 0)
(0.100686 -0.000617962 0)
(0.100935 -0.000608979 0)
(0.101223 -0.000635379 0)
(0.101491 -0.000589373 0)
(0.10182 -0.000575421 0)
(0.102077 -0.000511797 0)
(0.102425 -0.00044394 0)
(0.102781 -0.000369823 0)
(0.10312 -0.000263873 0)
(0.103498 -0.000119483 0)
(0.10397 2.68223e-05 0)
(0.104359 0.00021811 0)
(0.104849 0.00040688 0)
(0.105328 0.000625834 0)
(0.105923 0.000894434 0)
(0.106453 0.00116738 0)
(0.107079 0.00150727 0)
(0.10775 0.0018494 0)
(0.108558 0.00222028 0)
(0.10927 0.00262229 0)
(0.11017 0.00307054 0)
(0.111081 0.00355228 0)
(0.112159 0.00408015 0)
(0.113213 0.00460301 0)
(0.114449 0.00514956 0)
(0.115672 0.00569068 0)
(0.100005 -0.000209324 0)
(0.100117 -0.000529749 0)
(0.100334 -0.000798373 0)
(0.100577 -0.000914034 0)
(0.100898 -0.0010131 0)
(0.101161 -0.00101567 0)
(0.101484 -0.0010562 0)
(0.101758 -0.0010311 0)
(0.102107 -0.00103103 0)
(0.102371 -0.000984901 0)
(0.102761 -0.000935098 0)
(0.103109 -0.000868703 0)
(0.103501 -0.000789535 0)
(0.103868 -0.000652879 0)
(0.104386 -0.000538959 0)
(0.104766 -0.000383791 0)
(0.105306 -0.00023034 0)
(0.105781 -4.40275e-05 0)
(0.106425 0.000176208 0)
(0.106938 0.000409359 0)
(0.107644 0.00068599 0)
(0.108294 0.00098966 0)
(0.109167 0.00128695 0)
(0.109865 0.00163921 0)
(0.110842 0.00201769 0)
(0.111726 0.00243108 0)
(0.112872 0.00285658 0)
(0.113883 0.00329308 0)
(0.1152 0.00372952 0)
(0.116379 0.00418658 0)
(0.0999993 -0.000235174 0)
(0.100222 -0.000596258 0)
(0.100573 -0.000850058 0)
(0.100926 -0.000960029 0)
(0.101311 -0.00104872 0)
(0.1016 -0.00106996 0)
(0.101934 -0.00113112 0)
(0.102207 -0.0011302 0)
(0.102557 -0.00114837 0)
(0.102818 -0.00113229 0)
(0.103218 -0.00110144 0)
(0.103538 -0.00105564 0)
(0.103942 -0.00100815 0)
(0.104271 -0.000896418 0)
(0.104775 -0.000817886 0)
(0.105127 -0.00070076 0)
(0.105667 -0.000577221 0)
(0.10611 -0.000425357 0)
(0.106736 -0.00024696 0)
(0.107219 -4.4024e-05 0)
(0.107939 0.00018152 0)
(0.108563 0.000440989 0)
(0.109435 0.000661935 0)
(0.110118 0.00095272 0)
(0.11111 0.00126782 0)
(0.111954 0.00161901 0)
(0.113125 0.00195372 0)
(0.114112 0.00230164 0)
(0.115491 0.00262558 0)
(0.116661 0.00297931 0)
(0.0999754 -0.000690749 0)
(0.100348 -0.00136014 0)
(0.100708 -0.0015757 0)
(0.101092 -0.00161598 0)
(0.101329 -0.00166818 0)
(0.101552 -0.00170899 0)
(0.101661 -0.00176862 0)
(0.101818 -0.0017684 0)
(0.10189 -0.00176577 0)
(0.102018 -0.00174129 0)
(0.102103 -0.00170651 0)
(0.10223 -0.00166094 0)
(0.102274 -0.00160915 0)
(0.10242 -0.00151228 0)
(0.102539 -0.00145656 0)
(0.102697 -0.00136972 0)
(0.102822 -0.0012646 0)
(0.103072 -0.00112838 0)
(0.103295 -0.000992707 0)
(0.103642 -0.000836781 0)
(0.103977 -0.000688231 0)
(0.104444 -0.000496855 0)
(0.104906 -0.000326521 0)
(0.105529 -9.39342e-05 0)
(0.106216 0.000136283 0)
(0.107058 0.000387312 0)
(0.10796 0.000601391 0)
(0.108984 0.000846446 0)
(0.110115 0.0010712 0)
(0.11139 0.00133264 0)
(0.0990135 -0.000602834 0)
(0.0984663 -0.00114437 0)
(0.0974166 -0.00127947 0)
(0.0960116 -0.00128021 0)
(0.0943727 -0.00129514 0)
(0.0927898 -0.00132563 0)
(0.0911339 -0.00133233 0)
(0.0896128 -0.00131008 0)
(0.0880175 -0.00129941 0)
(0.0865323 -0.00126485 0)
(0.0849917 -0.00120847 0)
(0.0835935 -0.00115913 0)
(0.0821161 -0.00112024 0)
(0.0808366 -0.00107302 0)
(0.0794882 -0.00101943 0)
(0.0783402 -0.000943037 0)
(0.0771325 -0.000874226 0)
(0.0761894 -0.000825319 0)
(0.0751409 -0.000770468 0)
(0.074411 -0.00066879 0)
(0.0735992 -0.000554562 0)
(0.0731703 -0.000467152 0)
(0.0725915 -0.000407191 0)
(0.0724445 -0.000325785 0)
(0.0721462 -0.000208284 0)
(0.0723902 -6.7462e-05 0)
(0.0724399 7.7943e-05 0)
(0.0730764 0.000190578 0)
(0.0734454 0.000271542 0)
(0.0744419 0.000319608 0)
(0.0103102 0.000227112 0)
(0.0392165 0.0137734 0)
(0.0289813 0.0103573 0)
(0.0618896 0.024557 8.30253e-22)
(0.0452074 0.0198678 6.81327e-22)
(0.0788208 0.0329197 0)
(0.0590296 0.0279798 2.70319e-22)
(0.0976115 0.0395026 1.87031e-23)
(0.074879 0.0348467 6.72094e-22)
(0.12325 0.0437256 0)
(0.0662877 0.0128385 0)
(0.071676 0.0200435 0)
(0.0794269 0.0222386 0)
(0.0864339 0.0312484 0)
(0.0922743 0.0329637 0)
(0.0994869 0.0413832 1.69229e-22)
(0.10297 0.0379156 4.80497e-23)
(0.11653 0.049833 -8.47282e-23)
(0.120691 0.0449013 -5.11831e-22)
(0.137502 0.0516055 -4.67586e-22)
(0.0878667 0.020657 0)
(0.0905315 0.0235308 0)
(0.0957703 0.0290825 0)
(0.097229 0.0284953 0)
(0.104163 0.0366921 0)
(0.109068 0.0384231 -1.69229e-22)
(0.11446 0.040078 -4.80496e-23)
(0.120653 0.0377091 8.47274e-23)
(0.130005 0.044034 2.68611e-22)
(0.139152 0.0408147 4.67588e-22)
(0.0956533 0.0194536 -3.6428e-22)
(0.0981033 0.0240943 0)
(0.101945 0.027754 -2.9299e-22)
(0.104606 0.0298867 -2.42713e-22)
(0.108294 0.0315349 -1.73798e-22)
(0.113973 0.0365504 0)
(0.119827 0.0386145 0)
(0.123581 0.0367113 1.30738e-22)
(0.130012 0.0378759 2.71567e-22)
(0.139299 0.0381736 4.16452e-22)
(0.0999789 0.0213781 3.64281e-22)
(0.102216 0.0222994 0)
(0.105095 0.0270162 2.9299e-22)
(0.108653 0.0276365 2.42713e-22)
(0.111167 0.0313588 1.73799e-22)
(0.115951 0.0321077 0)
(0.121473 0.0357044 0)
(0.126548 0.0327505 -1.30739e-22)
(0.13131 0.0341453 -2.71569e-22)
(0.138136 0.0317177 -4.16455e-22)
(0.10305 0.0198845 0)
(0.105065 0.021685 -2.63318e-22)
(0.107629 0.0251046 0)
(0.110739 0.026267 -1.70752e-22)
(0.113951 0.0281401 0)
(0.118044 0.0288816 0)
(0.123076 0.0322236 0)
(0.127886 0.0303588 -1.52612e-22)
(0.13228 0.0306965 0)
(0.137979 0.0290574 0)
(0.105317 0.019529 2.58905e-22)
(0.107292 0.0201305 4.95641e-22)
(0.109713 0.0234147 1.9146e-22)
(0.113138 0.0238301 1.70752e-22)
(0.116109 0.0266168 0)
(0.119652 0.0262142 -1.70853e-23)
(0.123913 0.0289155 0)
(0.128882 0.0272857 1.52613e-22)
(0.132779 0.0274681 0)
(0.137623 0.0250353 0)
(0.107384 0.0180529 -2.58906e-22)
(0.109337 0.0188926 -2.32322e-22)
(0.111752 0.021486 -1.91461e-22)
(0.114718 0.0219923 0)
(0.117706 0.0239225 0)
(0.121218 0.0236508 1.70853e-23)
(0.124972 0.0257561 0)
(0.129605 0.0245577 0)
(0.133504 0.0245732 0)
(0.137291 0.0225656 0)
(0.109179 0.0168355 0)
(0.111085 0.0173787 -1.81615e-22)
(0.113391 0.0196512 0)
(0.116314 0.0198164 -9.89753e-23)
(0.119152 0.0217871 0)
(0.1224 0.0213937 0)
(0.125834 0.0228675 8.18514e-23)
(0.13001 0.0217663 1.62277e-22)
(0.133558 0.021959 0)
(0.137041 0.0199265 3.34466e-22)
(0.110769 0.0153501 0)
(0.112603 0.0158706 1.81615e-22)
(0.11489 0.0177374 0)
(0.117587 0.01795 9.89755e-23)
(0.120262 0.0194014 0)
(0.123401 0.019059 0)
(0.126597 0.0202797 -8.18515e-23)
(0.130291 0.01935 -1.62277e-22)
(0.13371 0.0193058 0)
(0.136926 0.0175176 -3.34467e-22)
(0.112164 0.0138646 8.44248e-23)
(0.113962 0.0142904 0)
(0.116125 0.0158571 0)
(0.118711 0.015964 3.4188e-23)
(0.121303 0.0172535 0)
(0.124186 0.0169328 0)
(0.127159 0.0177602 0)
(0.130557 0.0169243 -8.05237e-23)
(0.133735 0.0169698 0)
(0.13665 0.0153725 0)
(0.113382 0.0123375 -7.74789e-24)
(0.115119 0.0127326 0)
(0.117217 0.0140215 4.80938e-23)
(0.11965 0.0141333 -5.78547e-24)
(0.122102 0.0151121 0)
(0.124837 0.0148703 0)
(0.127664 0.0155362 -4.75843e-23)
(0.130715 0.0147692 8.05239e-23)
(0.133631 0.0146874 -1.13442e-22)
(0.136425 0.0132787 -1.48467e-22)
(0.114463 0.010771 -6.61781e-24)
(0.116161 0.0111144 0)
(0.118165 0.0121684 -5.66642e-24)
(0.12048 0.0122759 -4.7471e-24)
(0.122837 0.0130812 2.59981e-24)
(0.125389 0.0128552 2.1378e-23)
(0.128051 0.0133104 -8.76943e-25)
(0.130883 0.0126624 -7.84079e-23)
(0.133579 0.0125785 3.38848e-24)
(0.136174 0.0113237 5.44347e-24)
(0.115418 0.00927056 -7.00594e-23)
(0.117067 0.00958323 0)
(0.118988 0.0104436 -4.24274e-23)
(0.121174 0.0105517 -2.36555e-23)
(0.123433 0.0111772 -2.59981e-24)
(0.125858 0.0110183 -4.46685e-23)
(0.128355 0.011368 4.84614e-23)
(0.130969 0.0107722 7.8408e-23)
(0.133489 0.010638 1.10054e-22)
(0.135947 0.00956302 1.43024e-22)
(0.116289 0.00767934 0)
(0.117903 0.00795653 0)
(0.119759 0.00864897 0)
(0.121837 0.00875902 0)
(0.124005 0.0092541 0)
(0.126294 0.00911699 2.32904e-23)
(0.128661 0.00935245 0)
(0.131107 0.00885852 0)
(0.133452 0.00870913 0)
(0.135751 0.00778417 0)
(0.117115 0.00625689 0)
(0.118657 0.00650504 0)
(0.120457 0.00706464 0)
(0.122398 0.00718418 0)
(0.124497 0.00757739 0)
(0.126651 0.00748668 1.27931e-23)
(0.12891 0.00765725 0)
(0.131183 0.00723758 0)
(0.133426 0.00706933 0)
(0.135589 0.00629374 0)
(0.117913 0.00463699 0)
(0.119343 0.00485938 0)
(0.121156 0.00530072 1.38733e-23)
(0.122901 0.00541559 0)
(0.124978 0.00571345 -3.01721e-24)
(0.126909 0.00564392 -1.27931e-23)
(0.129117 0.00574733 0)
(0.131135 0.00541256 -3.62686e-23)
(0.133308 0.00524952 0)
(0.135216 0.00462296 0)
(0.118249 0.00332178 0)
(0.119308 0.00352249 0)
(0.121137 0.00386939 -1.38733e-23)
(0.122452 0.00399914 0)
(0.124553 0.00422793 3.01722e-24)
(0.126033 0.00419477 0)
(0.128274 0.00424596 0)
(0.129797 0.00397893 3.62688e-23)
(0.13201 0.00379938 0)
(0.133389 0.00329798 0)
(0.112814 0.00156515 -6.08329e-24)
(0.113244 0.00172843 -4.67333e-24)
(0.114989 0.00195443 -3.04563e-24)
(0.115631 0.00206486 0)
(0.11768 0.00219938 9.32795e-25)
(0.118415 0.00218589 0)
(0.120616 0.00219669 5.88865e-24)
(0.121286 0.00203515 0)
(0.123482 0.00190471 1.1795e-23)
(0.123879 0.00159465 1.50669e-23)
(0.0751223 0.000343992 6.0826e-24)
(0.0752502 0.000355635 4.67275e-24)
(0.0762933 0.000410026 3.04523e-24)
(0.0766464 0.000469978 0)
(0.078046 0.000512307 -9.3266e-25)
(0.0785161 0.000512896 0)
(0.0801158 0.000478371 -5.8877e-24)
(0.0804509 0.000391632 0)
(0.0819896 0.000266798 -1.17928e-23)
(0.0818224 0.000104628 -1.5064e-23)
(0.0105731 -0.00623059 0)
(0.0228258 0.00131207 0)
(0.0165163 0.0091899 0)
(0.0167759 -0.0005033 0)
(0.0138283 0.00645619 0)
(-0.0277851 0.0179385 0)
(-0.0743283 0.0169036 0)
(-0.104415 0.0111976 0)
(-0.123589 0.00707447 0)
(-0.132003 0.00339079 0)
(-0.132804 0.000562755 0)
(-0.128282 -0.00145125 0)
(-0.118724 -0.00268869 0)
(-0.108192 -0.00352882 0)
(-0.0932602 -0.00425974 0)
(-0.078242 -0.00511664 0)
(-0.061367 -0.00563001 0)
(-0.0405727 -0.00624588 0)
(-0.0227654 -0.00561686 0)
(-0.00317442 -0.00541119 0)
(0.0136275 -0.00449408 0)
(0.0284653 -0.00347926 0)
(0.0401976 -0.00238015 0)
(0.049077 -0.00139279 0)
(0.0552975 -0.000584364 0)
(0.0594332 1.75394e-05 0)
(0.0618984 0.000442502 0)
(0.0631882 0.000751468 0)
(0.0635409 0.00103507 0)
(0.0631301 0.00135622 0)
(0.0618666 0.00165478 0)
(0.0598287 0.00183607 0)
(0.057121 0.00181741 0)
(0.0540806 0.00161218 0)
(0.051035 0.00128779 0)
(0.0482098 0.000934008 0)
(0.0459222 0.000628321 0)
(0.0439083 0.000385479 0)
(0.0427133 0.000235254 0)
(0.0412153 0.000115395 0)
(0.0107811 -0.0187865 0)
(0.0138913 -0.00451959 0)
(0.0258866 -0.00544355 0)
(0.00484173 0.00304899 0)
(-0.0316401 0.0264535 0)
(-0.0713718 0.0414696 0)
(-0.0970505 0.0348512 0)
(-0.117211 0.0237908 0)
(-0.126307 0.0132045 0)
(-0.131619 0.00423723 0)
(-0.126552 -0.00357998 0)
(-0.12154 -0.00875708 0)
(-0.107492 -0.0126618 0)
(-0.0981857 -0.0150794 0)
(-0.0801857 -0.0173436 0)
(-0.0657186 -0.0184995 0)
(-0.0466988 -0.0211967 0)
(-0.0277651 -0.0221602 0)
(-0.00874068 -0.0213344 0)
(0.0106054 -0.0205483 0)
(0.027699 -0.0181531 0)
(0.0430533 -0.0153076 0)
(0.0557584 -0.0121378 0)
(0.0660646 -0.00913876 0)
(0.0739485 -0.00652841 0)
(0.0799071 -0.00450108 0)
(0.0843029 -0.00298135 0)
(0.0875955 -0.00188943 0)
(0.0901239 -0.000986598 0)
(0.0920736 -0.000172382 0)
(0.0936521 0.000693153 0)
(0.0947719 0.00148321 0)
(0.0955912 0.00223138 0)
(0.095743 0.00267175 0)
(0.0954965 0.00287194 0)
(0.0944841 0.00267061 0)
(0.0934462 0.00239718 0)
(0.0918777 0.00188112 0)
(0.0910094 0.00159058 0)
(0.0893919 0.00109349 0)
(0.00904606 -0.0252917 0)
(-0.00595965 -0.00977224 0)
(-0.00752879 0.0161602 0)
(-0.023871 0.0381328 0)
(-0.0470997 0.0584707 0)
(-0.0686139 0.062458 0)
(-0.0823609 0.0490763 0)
(-0.0946181 0.0333983 0)
(-0.0992445 0.0185226 0)
(-0.102151 0.00486704 0)
(-0.0954524 -0.00699392 0)
(-0.0893595 -0.0151894 0)
(-0.0758547 -0.0204085 0)
(-0.0653252 -0.023569 0)
(-0.0506854 -0.0271262 0)
(-0.0360012 -0.0300521 0)
(-0.0196145 -0.0327402 0)
(-0.00310388 -0.0341809 0)
(0.0134872 -0.0338757 0)
(0.0293122 -0.0321775 0)
(0.0433531 -0.0285031 0)
(0.0557066 -0.024051 0)
(0.0658365 -0.0192468 0)
(0.0741863 -0.014661 0)
(0.0807537 -0.0105859 0)
(0.0857865 -0.00744492 0)
(0.0895162 -0.00514322 0)
(0.0925027 -0.00353927 0)
(0.0950444 -0.00226587 0)
(0.0972338 -0.00127692 0)
(0.0990828 -0.0003648 0)
(0.100798 0.000409842 0)
(0.102494 0.00119105 0)
(0.104208 0.00183551 0)
(0.105672 0.00238592 0)
(0.106719 0.00258858 0)
(0.107252 0.00265038 0)
(0.107062 0.00226254 0)
(0.106899 0.0020604 0)
(0.105865 0.00141616 0)
(0.00924214 -0.017847 0)
(-0.00972865 0.00903168 0)
(-0.00962914 0.00865289 0)
(-0.0273869 0.0377987 0)
(-0.0439548 0.0590927 0)
(-0.0553534 0.0646668 0)
(-0.0577703 0.0526302 0)
(-0.065429 0.0368237 0)
(-0.0672024 0.0197839 0)
(-0.0690702 0.00283238 0)
(-0.0630455 -0.0125706 0)
(-0.0554583 -0.0230717 0)
(-0.0434612 -0.0299518 0)
(-0.0326928 -0.0337462 0)
(-0.0192605 -0.037729 0)
(-0.00561302 -0.0409566 0)
(0.00891844 -0.0443099 0)
(0.0241283 -0.0457502 0)
(0.038427 -0.0447928 0)
(0.0509834 -0.0419183 0)
(0.0613006 -0.0371891 0)
(0.0701583 -0.0313485 0)
(0.0771867 -0.0252267 0)
(0.0826904 -0.0196071 0)
(0.087141 -0.0145511 0)
(0.0907957 -0.0104969 0)
(0.0933821 -0.00759712 0)
(0.0953575 -0.00572411 0)
(0.0972184 -0.00425618 0)
(0.0992537 -0.00298412 0)
(0.10104 -0.0018175 0)
(0.102488 -0.000926422 0)
(0.103534 -0.000230248 0)
(0.104676 0.000318299 0)
(0.105956 0.000957983 0)
(0.107311 0.0014039 0)
(0.108732 0.00201476 0)
(0.109511 0.0020141 0)
(0.110319 0.0023029 0)
(0.110219 0.00181349 0)
(0.0038341 -0.0295301 0)
(-0.0151208 0.00267589 0)
(-0.0251688 0.0256586 0)
(-0.0196674 0.0559577 0)
(-0.0226028 0.0746485 0)
(-0.0209447 0.0759345 0)
(-0.0209037 0.0595102 0)
(-0.0260501 0.0417312 0)
(-0.0270091 0.0222755 0)
(-0.0273513 0.00268689 0)
(-0.0222846 -0.0167642 0)
(-0.0151994 -0.0301905 0)
(-0.005779 -0.0376024 0)
(0.00356702 -0.041903 0)
(0.0141398 -0.0462007 0)
(0.0255035 -0.0506119 0)
(0.0382724 -0.0540863 0)
(0.0503262 -0.0555432 0)
(0.0613358 -0.0538125 0)
(0.0711645 -0.0487003 0)
(0.0778519 -0.0423169 0)
(0.0824156 -0.0355123 0)
(0.086257 -0.0282659 0)
(0.0891185 -0.0217881 0)
(0.091164 -0.0163708 0)
(0.0933026 -0.0118762 0)
(0.0951837 -0.00843914 0)
(0.0964497 -0.00640981 0)
(0.0973756 -0.00520975 0)
(0.0987392 -0.00413959 0)
(0.100535 -0.00278175 0)
(0.102322 -0.00143604 0)
(0.103438 -0.000392618 0)
(0.10398 0.000125583 0)
(0.104246 0.000547443 0)
(0.104736 0.000666252 0)
(0.105464 0.00116313 0)
(0.106632 0.00120028 0)
(0.107405 0.00161272 0)
(0.108905 0.00154181 0)
(-0.0157988 -0.00532926 0)
(-0.0239137 0.0354781 0)
(-0.0104515 0.0143571 0)
(-0.0037113 0.0439183 0)
(-0.00169045 0.0600896 0)
(0.00646142 0.0632548 0)
(0.0120247 0.0539022 0)
(0.013691 0.0405184 0)
(0.0159494 0.0215252 0)
(0.0186308 0.000415494 0)
(0.024118 -0.0206103 0)
(0.0292751 -0.0348591 0)
(0.034852 -0.0431111 0)
(0.0406677 -0.0479562 0)
(0.0478851 -0.0527688 0)
(0.0568406 -0.0579762 0)
(0.0662781 -0.0616911 0)
(0.0752277 -0.0623091 0)
(0.0808525 -0.0603815 0)
(0.0858433 -0.0542149 0)
(0.090147 -0.0453382 0)
(0.0914835 -0.037283 0)
(0.0919581 -0.0298306 0)
(0.0929511 -0.0228736 0)
(0.0935398 -0.0173233 0)
(0.0942477 -0.0131772 0)
(0.0955609 -0.00969837 0)
(0.0969998 -0.00719238 0)
(0.0978298 -0.00581365 0)
(0.0983786 -0.00515579 0)
(0.0993121 -0.0042956 0)
(0.100884 -0.00292994 0)
(0.102362 -0.00137399 0)
(0.103362 -0.000229613 0)
(0.103248 0.00044536 0)
(0.103248 0.000561013 0)
(0.102441 0.000661068 0)
(0.103423 0.000588253 0)
(0.103045 0.000640264 0)
(0.105322 0.000669563 0)
(-0.0638398 -0.00601579 0)
(0.000231796 -0.00297364 0)
(-0.0271911 0.00487912 0)
(0.0181039 0.0447917 0)
(0.0309936 0.0669366 0)
(0.0467423 0.0672399 0)
(0.0530772 0.0559319 0)
(0.0574475 0.0399757 0)
(0.0617568 0.0195276 0)
(0.0655223 -0.00265366 0)
(0.0690316 -0.0232352 0)
(0.0704102 -0.0372908 0)
(0.0719228 -0.0453307 0)
(0.0742996 -0.0512823 0)
(0.0795195 -0.0572053 0)
(0.0861691 -0.0631067 0)
(0.09159 -0.0670184 0)
(0.0961046 -0.0661218 0)
(0.0977229 -0.0615161 0)
(0.0959119 -0.0551859 0)
(0.0953475 -0.0461692 0)
(0.0951333 -0.0368275 0)
(0.0937791 -0.0293177 0)
(0.0933343 -0.022818 0)
(0.0938566 -0.0171683 0)
(0.0946503 -0.0131892 0)
(0.0957668 -0.0103099 0)
(0.0973966 -0.00798515 0)
(0.0988247 -0.00618693 0)
(0.0995362 -0.00521298 0)
(0.0997313 -0.00461017 0)
(0.10032 -0.00366989 0)
(0.101181 -0.00221152 0)
(0.102656 -0.000524182 0)
(0.102877 0.000629262 0)
(0.103674 0.00122482 0)
(0.102332 0.0010443 0)
(0.103086 0.000744335 0)
(0.101779 0.000271334 0)
(0.103248 -0.000121711 0)
(0.106246 0.037914 0)
(0.0778628 0.017732 0)
(0.0404924 0.0036019 0)
(0.030071 0.00577097 0)
(0.0450719 0.0359938 0)
(0.0706426 0.0479262 0)
(0.0851708 0.046644 0)
(0.0954777 0.0360386 0)
(0.101812 0.0181678 0)
(0.105587 -0.00270557 0)
(0.106628 -0.0225099 0)
(0.10502 -0.0369917 0)
(0.103869 -0.0462745 0)
(0.106124 -0.0532418 0)
(0.110292 -0.0604872 0)
(0.114504 -0.0660563 0)
(0.116057 -0.0682844 0)
(0.113471 -0.066902 0)
(0.110133 -0.0606074 0)
(0.105295 -0.0522186 0)
(0.0997566 -0.0438357 0)
(0.0967149 -0.0352579 0)
(0.0949629 -0.0279699 0)
(0.0939058 -0.0226085 0)
(0.0940081 -0.0181089 0)
(0.0952127 -0.0144328 0)
(0.0969163 -0.011538 0)
(0.098956 -0.00925944 0)
(0.100809 -0.00726385 0)
(0.10203 -0.00573533 0)
(0.10224 -0.00479726 0)
(0.102235 -0.00389498 0)
(0.101977 -0.00299817 0)
(0.102834 -0.0014246 0)
(0.103112 -0.000276023 0)
(0.104586 0.000949881 0)
(0.104561 0.00112003 0)
(0.105496 0.000964774 0)
(0.105215 0.000559476 0)
(0.105454 -0.000441412 0)
(0.138504 0.0420835 0)
(0.133066 0.0370824 0)
(0.120998 0.0367484 0)
(0.106959 0.0358818 0)
(0.089374 0.0371528 0)
(0.0965268 0.0370032 0)
(0.10598 0.0345324 0)
(0.116206 0.0259793 0)
(0.124976 0.011872 0)
(0.130536 -0.00552709 0)
(0.132672 -0.0232937 0)
(0.132315 -0.0373107 0)
(0.131937 -0.04784 0)
(0.133661 -0.0561825 0)
(0.136859 -0.0625322 0)
(0.136805 -0.0665533 0)
(0.132557 -0.0662443 0)
(0.12461 -0.0618927 0)
(0.114946 -0.0554194 0)
(0.107756 -0.0476707 0)
(0.102723 -0.0400522 0)
(0.0994771 -0.0332329 0)
(0.0982206 -0.026934 0)
(0.0982854 -0.0216739 0)
(0.0986625 -0.0177484 0)
(0.0991194 -0.0151839 0)
(0.099871 -0.0131222 0)
(0.101338 -0.0109396 0)
(0.103082 -0.00850401 0)