/*--------------------------------*- C++ -*----------------------------------*\
| =========                 |                                                 |
| \\      /  F ield         | OpenFOAM: The Open Source CFD Toolbox           |
|  \\    /   O peration     | Version:  2112                                  |
|   \\  /    A nd           | Website:  www.openfoam.com                      |
|    \\/     M anipulation  |                                                 |
\*---------------------------------------------------------------------------*/
FoamFile
{
    version     2.0;
    format      ascii;
    arch        "LSB;label=32;scalar=64";
    class       volScalarField;
    location    "0.06";
    object      nut;
}
// * * * * * * * * * * * * * * * * * * * * * * * * * * * * * * * * * * * * * //

dimensions      [0 2 -1 0 0 0 0];

internalField   nonuniform List<scalar> 
1880
(
4.32822e-11
3.16459e-11
5.37767e-13
9.22619e-12
5.07585e-13
2.59858e-12
6.81724e-13
5.662e-13
7.20848e-14
1.33261e-14
8.39811e-16
7.84768e-17
1.00424e-17
3.80839e-17
1.56185e-16
4.18973e-16
8.81721e-16
2.03254e-15
3.43967e-15
1.08924e-14
1.14705e-14
8.21997e-14
3.73554e-14
9.05951e-13
7.31896e-13
1.52531e-11
3.50216e-11
3.64872e-10
1.11753e-09
1.59738e-08
1.26497e-08
3.26438e-08
4.35351e-09
5.73522e-09
4.10559e-10
2.42465e-09
5.49359e-10
3.3838e-10
6.92109e-11
1.50119e-11
8.91067e-13
5.82897e-15
8.50004e-14
6.42723e-13
2.04652e-12
4.94048e-12
1.03217e-11
2.25559e-11
4.13053e-11
1.05347e-10
1.52456e-10
5.78439e-10
5.30375e-10
3.23327e-09
2.31511e-09
1.24295e-08
1.4219e-08
3.09556e-08
5.0849e-08
7.93063e-08
1.41288e-08
2.28192e-08
2.54689e-09
1.9289e-09
1.3095e-09
1.43558e-08
2.41099e-09
8.2356e-09
1.0062e-09
6.42291e-10
6.8295e-10
1.09484e-09
1.33684e-09
1.63206e-09
2.0211e-09
2.48663e-09
3.02339e-09
3.68912e-09
4.43549e-09
5.48032e-09
6.47112e-09
8.34968e-09
9.40289e-09
1.33101e-08
1.35772e-08
2.18024e-08
2.09134e-08
3.48696e-08
4.36577e-08
4.86286e-08
1.31755e-08
2.58945e-08
5.29387e-09
8.42436e-09
1.35538e-09
1.66856e-08
1.31249e-09
6.46808e-09
1.45233e-09
2.30741e-09
1.27252e-09
1.39258e-09
1.58058e-09
1.8228e-09
2.15257e-09
2.55957e-09
3.03135e-09
3.63575e-09
4.28901e-09
5.27677e-09
6.12077e-09
7.9309e-09
8.89184e-09
1.22625e-08
1.30409e-08
1.85888e-08
1.9483e-08
2.83221e-08
3.30742e-08
4.14478e-08
1.39391e-08
2.4156e-08
3.50005e-09
9.34099e-09
4.87642e-10
1.44632e-08
1.33971e-09
7.86193e-09
1.32799e-09
1.93449e-09
8.43514e-10
1.1317e-09
1.36469e-09
1.64659e-09
2.00635e-09
2.4304e-09
2.90994e-09
3.50676e-09
4.15499e-09
5.08528e-09
5.94336e-09
7.53918e-09
8.62921e-09
1.13186e-08
1.23884e-08
1.65913e-08
1.84943e-08
2.59183e-08
3.58115e-08
3.3103e-08
1.41523e-08
2.49626e-08
5.89714e-09
1.55597e-08
1.34118e-09
1.6023e-08
4.05809e-10
6.29041e-09
7.75765e-10
1.20928e-09
7.49658e-10
9.02699e-10
1.19561e-09
1.5166e-09
1.89624e-09
2.32824e-09
2.81047e-09
3.39383e-09
4.03609e-09
4.90162e-09
5.78623e-09
7.16097e-09
8.44708e-09
1.04579e-08
1.20198e-08
1.45943e-08
1.70603e-08
2.15021e-08
2.73469e-08
2.77343e-08
1.43807e-08
2.44724e-08
5.39836e-09
1.66605e-08
1.04902e-09
1.5421e-08
8.11733e-10
3.36866e-09
6.01723e-10
1.99162e-09
6.87828e-10
8.18973e-10
1.12094e-09
1.45096e-09
1.8319e-09
2.2583e-09
2.73421e-09
3.29414e-09
3.92752e-09
4.71464e-09
5.61901e-09
6.76219e-09
8.16379e-09
9.64078e-09
1.14481e-08
1.30555e-08
1.58684e-08
1.92824e-08
2.61798e-08
2.3506e-08
1.44771e-08
2.44325e-08
6.19613e-09
1.80861e-08
1.48282e-09
1.57594e-08
7.74718e-10
1.70117e-09
8.8412e-10
2.18587e-09
7.98976e-10
8.48109e-10
1.13229e-09
1.44984e-09
1.81486e-09
2.22312e-09
2.68324e-09
3.21177e-09
3.82926e-09
4.53955e-09
5.44915e-09
6.38546e-09
7.85291e-09
8.90298e-09
1.08798e-08
1.18133e-08
1.45624e-08
1.71032e-08
2.12554e-08
2.16626e-08
1.45109e-08
2.43648e-08
6.43948e-09
1.85288e-08
1.70058e-09
1.57901e-08
9.96635e-10
2.41602e-09
9.51802e-10
2.08354e-09
9.67543e-10
9.71105e-10
1.21093e-09
1.50135e-09
1.83844e-09
2.21717e-09
2.65293e-09
3.1479e-09
3.74396e-09
4.38239e-09
5.27346e-09
6.04687e-09
7.51368e-09
8.26621e-09
1.02857e-08
1.08199e-08
1.34192e-08
1.54414e-08
1.92051e-08
1.90579e-08
1.44974e-08
2.43702e-08
6.69535e-09
1.85978e-08
1.94828e-09
1.58564e-08
1.18902e-09
4.22665e-09
1.09477e-09
2.09042e-09
1.1574e-09
1.12463e-09
1.32442e-09
1.582e-09
1.88366e-09
2.23081e-09
2.64041e-09
3.10087e-09
3.66707e-09
4.24511e-09
5.09802e-09
5.75687e-09
7.16157e-09
7.7347e-09
9.67766e-09
1.00363e-08
1.23393e-08
1.39794e-08
1.65283e-08
1.76388e-08
1.44449e-08
2.44265e-08
6.84102e-09
1.83163e-08
2.19757e-09
1.59403e-08
1.3705e-09
5.73503e-09
1.26426e-09
2.1651e-09
1.34431e-09
1.27932e-09
1.44351e-09
1.66889e-09
1.9388e-09
2.25591e-09
2.63656e-09
3.06299e-09
3.59574e-09
4.12684e-09
4.92972e-09
5.50898e-09
6.81246e-09
7.28967e-09
9.08593e-09
9.39676e-09
1.14035e-08
1.27926e-08
1.47038e-08
1.60101e-08
1.43497e-08
2.45111e-08
6.80727e-09
1.76394e-08
2.39844e-09
1.59126e-08
1.59112e-09
6.72337e-09
1.44111e-09
2.25326e-09
1.50333e-09
1.41579e-09
1.55055e-09
1.74854e-09
1.99004e-09
2.27868e-09
2.63077e-09
3.02852e-09
3.52916e-09
4.02522e-09
4.77036e-09
5.30278e-09
6.47941e-09
6.92724e-09
8.53126e-09
8.88119e-09
1.05761e-08
1.18044e-08
1.30997e-08
1.47387e-08
1.42279e-08
2.46753e-08
6.85262e-09
1.66947e-08
2.66224e-09
1.60954e-08
1.71441e-09
7.17781e-09
1.55942e-09
2.37857e-09
1.63776e-09
1.52011e-09
1.63153e-09
1.80721e-09
2.02491e-09
2.2904e-09
2.61898e-09
2.99379e-09
3.46445e-09
3.93414e-09
4.62096e-09
5.13074e-09
6.17547e-09
6.63171e-09
8.02845e-09
8.45173e-09
9.87059e-09
1.09935e-08
1.19029e-08
1.35666e-08
1.40081e-08
2.47248e-08
6.04755e-09
1.45585e-08
2.56927e-09
1.56758e-08
2.03471e-09
7.68674e-09
1.77499e-09
2.36102e-09
1.7046e-09
1.58548e-09
1.67522e-09
1.83381e-09
2.0351e-09
2.28428e-09
2.59586e-09
2.95437e-09
3.39917e-09
3.85133e-09
4.48455e-09
4.98569e-09
5.90722e-09
6.39052e-09
7.58884e-09
8.09028e-09
9.28001e-09
1.03251e-08
1.10002e-08
1.25733e-08
1.37423e-08
2.53072e-08
6.6609e-09
1.33142e-08
3.06784e-09
1.65194e-08
2.06436e-09
7.39646e-09
1.80123e-09
2.58555e-09
1.79866e-09
1.60073e-09
1.67613e-09
1.82567e-09
2.01754e-09
2.25793e-09
2.55956e-09
2.90877e-09
3.33387e-09
3.77534e-09
4.3621e-09
4.86405e-09
5.67795e-09
6.19379e-09
7.22028e-09
7.78608e-09
8.79569e-09
9.76985e-09
1.0331e-08
1.17363e-08
1.31549e-08
2.4454e-08
4.23896e-09
7.45549e-09
2.47856e-09
1.47628e-08
2.54881e-09
8.01852e-09
1.9702e-09
2.3279e-09
1.66356e-09
1.54827e-09
1.61521e-09
1.76724e-09
1.96516e-09
2.20944e-09
2.51009e-09
2.85668e-09
3.26866e-09
3.70575e-09
4.2552e-09
4.76265e-09
5.48785e-09
6.03616e-09
6.92015e-09
7.53475e-09
8.406e-09
9.31904e-09
9.82989e-09
1.10588e-08
1.30756e-08
2.62455e-08
5.78094e-09
8.28448e-09
3.02111e-09
1.70039e-08
2.55851e-09
6.62526e-09
1.95383e-09
2.53259e-09
1.69881e-09
1.43717e-09
1.50881e-09
1.6769e-09
1.88625e-09
2.14109e-09
2.44799e-09
2.79814e-09
3.20373e-09
3.64108e-09
4.1623e-09
4.67781e-09
5.33361e-09
5.91202e-09
6.68163e-09
7.33809e-09
8.09461e-09
8.96502e-09
9.45686e-09
1.0533e-08
1.32422e-08
2.29777e-08
3.16073e-09
5.21689e-09
2.89942e-09
1.41753e-08
2.28526e-09
7.55637e-09
3.07743e-10
7.04797e-10
2.12876e-11
2.78092e-11
1.9054e-10
5.31335e-10
9.05067e-10
1.29318e-09
1.70757e-09
2.14705e-09
2.62165e-09
3.12357e-09
3.68069e-09
4.24979e-09
4.90549e-09
5.53704e-09
6.26775e-09
6.99437e-09
7.64459e-09
8.61136e-09
8.9762e-09
1.01014e-08
1.28445e-08
3.24588e-08
4.15942e-09
5.79183e-09
7.51951e-10
2.93887e-09
8.85369e-10
5.52569e-10
1.4155e-10
3.9297e-11
9.05686e-12
3.42756e-12
1.8417e-12
1.24186e-12
1.03619e-12
1.00338e-12
1.05226e-12
1.11757e-12
1.18506e-12
1.1549e-12
1.09099e-12
8.16743e-13
5.45071e-13
2.34881e-13
4.60853e-14
1.87161e-14
1.91232e-13
2.93662e-12
5.59325e-12
2.04111e-11
4.26255e-11
3.13959e-11
4.81389e-13
9.2045e-12
6.24485e-13
2.83411e-12
7.69972e-13
6.17553e-13
9.44236e-14
2.288e-14
3.71815e-15
1.06762e-15
4.00585e-16
2.02949e-16
1.57707e-16
1.59357e-16
1.85371e-16
2.26956e-16
2.86093e-16
3.52285e-16
4.38012e-16
5.11286e-16
5.68967e-16
6.83926e-16
5.76011e-16
7.97835e-16
4.79404e-16
7.17706e-16
1.72766e-16
1.27948e-16
2.40647e-08
2.12057e-10
4.49616e-09
2.76473e-09
2.86547e-09
1.29024e-09
8.16306e-08
1.37025e-08
4.18592e-09
1.51549e-08
1.06475e-07
7.26564e-08
3.03535e-08
5.89845e-08
4.90666e-10
1.14469e-07
2.69476e-08
5.08074e-08
3.99744e-07
1.13247e-07
1.22448e-07
5.66836e-08
6.83905e-08
4.18082e-08
3.63797e-08
5.60814e-08
3.79869e-08
1.39238e-07
2.37389e-07
1.06831e-07
5.6831e-08
4.84837e-08
6.09999e-08
5.876e-08
6.6801e-08
4.26831e-08
4.69328e-08
7.36322e-08
8.62724e-08
7.72174e-08
7.48104e-08
3.57516e-08
4.94846e-08
3.6157e-08
4.46515e-08
5.12951e-08
4.58225e-08
4.29998e-08
8.93636e-08
4.39895e-08
3.54811e-08
3.69145e-08
4.13432e-08
4.30068e-08
4.18516e-08
3.72125e-08
4.89424e-08
6.07082e-08
4.70681e-08
7.51092e-08
4.03125e-08
2.73303e-08
3.21735e-08
3.13033e-08
3.44081e-08
4.03586e-08
3.5765e-08
4.12614e-08
5.48655e-08
3.46296e-08
2.61632e-08
2.747e-08
2.94808e-08
3.02369e-08
3.07629e-08
3.89518e-08
3.5556e-08
3.80335e-08
3.41114e-08
4.33223e-08
2.53495e-08
2.24773e-08
2.58079e-08
2.64632e-08
2.81035e-08
2.96845e-08
2.87376e-08
3.03724e-08
3.32351e-08
2.71682e-08
2.03281e-08
2.09067e-08
2.37408e-08
2.54278e-08
2.44981e-08
2.62257e-08
2.56803e-08
2.64648e-08
2.45012e-08
2.61398e-08
1.8331e-08
1.8479e-08
2.15853e-08
2.28492e-08
2.18156e-08
2.20353e-08
2.18858e-08
2.19999e-08
2.19979e-08
1.96532e-08
1.61027e-08
1.67539e-08
1.9592e-08
2.12371e-08
1.93039e-08
1.90746e-08
1.90305e-08
1.90306e-08
1.76147e-08
1.67746e-08
1.4506e-08
1.51711e-08
1.7689e-08
1.87957e-08
1.71821e-08
1.67413e-08
1.64839e-08
1.6189e-08
1.52078e-08
1.3629e-08
1.31666e-08
1.38447e-08
1.5914e-08
1.67668e-08
1.5353e-08
1.47455e-08
1.43808e-08
1.39374e-08
1.26515e-08
1.13044e-08
1.21557e-08
1.27726e-08
1.436e-08
1.48946e-08
1.38186e-08
1.31616e-08
1.26311e-08
1.2e-08
1.07321e-08
9.29637e-09
1.14219e-08
1.19362e-08
1.30691e-08
1.33984e-08
1.25634e-08
1.18516e-08
1.11999e-08
1.04168e-08
9.05166e-09
7.62597e-09
1.09e-08
1.13028e-08
1.20676e-08
1.22755e-08
1.1595e-08
1.08553e-08
1.00835e-08
9.23619e-09
7.77473e-09
6.39423e-09
1.04167e-08
1.06382e-08
1.10332e-08
1.11383e-08
1.05705e-08
9.70691e-09
8.85864e-09
7.5067e-09
6.16012e-09
4.03598e-09
4.19367e-11
6.57505e-11
1.08647e-10
1.84767e-10
1.77828e-10
1.69398e-10
1.26409e-10
1.32863e-10
8.26673e-11
6.16573e-11
3.12206e-16
3.20125e-15
8.9377e-15
1.68223e-14
1.88755e-14
1.73093e-14
1.576e-14
2.02235e-14
1.62531e-14
1.02879e-14
1.32241e-07
8.85696e-09
2.27234e-09
3.7418e-09
3.69932e-08
1.30177e-07
6.63191e-08
8.20698e-09
9.72183e-10
1.40204e-10
2.38725e-11
4.5368e-12
9.47123e-13
2.19469e-13
5.7289e-14
1.69328e-14
5.64777e-15
2.10677e-15
8.64346e-16
3.83204e-16
1.81613e-16
9.09249e-17
4.72663e-17
2.52661e-17
1.38858e-17
7.80837e-18
4.44453e-18
2.56273e-18
1.495e-18
8.87732e-19
5.27265e-19
3.12298e-19
1.96371e-19
1.008e-19
8.54748e-20
2.95843e-20
3.21244e-20
1.38039e-20
6.20961e-21
2.06643e-20
5.45289e-10
1.87692e-07
1.34865e-07
1.01376e-07
1.58346e-07
1.61087e-07
1.42179e-07
1.14089e-07
8.55738e-08
5.85949e-08
3.52733e-08
1.78501e-08
7.53001e-09
2.76771e-09
9.5122e-10
3.25179e-10
1.15029e-10
4.29524e-11
1.70351e-11
7.16605e-12
3.1845e-12
1.48601e-12
7.2233e-13
3.63313e-13
1.88452e-13
1.00513e-13
5.4864e-14
3.05145e-14
1.72472e-14
9.85974e-15
5.72465e-15
3.28295e-15
2.03048e-15
1.07379e-15
8.16317e-16
3.43387e-16
2.98125e-16
1.5304e-16
7.50211e-17
4.53624e-17
1.0275e-07
1.98594e-07
1.10719e-07
2.99194e-08
1.28843e-07
1.57816e-07
1.46233e-07
1.19299e-07
9.06059e-08
6.66404e-08
4.8784e-08
3.60611e-08
2.71227e-08
2.07821e-08
1.61696e-08
1.27054e-08
1.00167e-08
7.86645e-09
6.10603e-09
4.64595e-09
3.43658e-09
2.45251e-09
1.67867e-09
1.09875e-09
6.88232e-10
4.14311e-10
2.41299e-10
1.36973e-10
7.64118e-11
4.21075e-11
2.32108e-11
1.25959e-11
7.22655e-12
3.66667e-12
2.49917e-12
1.03728e-12
8.33531e-13
3.88486e-13
2.23822e-13
1.12355e-13
1.61763e-07
1.65693e-07
6.58513e-07
1.10629e-08
6.04694e-08
1.13242e-07
1.12598e-07
1.09411e-07
9.08615e-08
6.78396e-08
4.90246e-08
3.56435e-08
2.64651e-08
2.01202e-08
1.56205e-08
1.2336e-08
9.87492e-09
7.99019e-09
6.5216e-09
5.36103e-09
4.43299e-09
3.68349e-09
3.0731e-09
2.57256e-09
2.15969e-09
1.81735e-09
1.53213e-09
1.29329e-09
1.09252e-09
9.22567e-10
7.79149e-10
6.5504e-10
5.53901e-10
4.55668e-10
3.93678e-10
3.0151e-10
2.72489e-10
1.94649e-10
1.70789e-10
1.08214e-10
4.62948e-07
1.19363e-07
4.74114e-06
1.27593e-06
9.58311e-08
1.7684e-07
1.06923e-07
7.92503e-08
7.5e-08
6.30901e-08
4.68703e-08
3.39745e-08
2.51666e-08
1.91922e-08
1.49878e-08
1.19114e-08
9.58907e-09
7.79447e-09
6.38387e-09
5.26075e-09
4.35712e-09
3.62372e-09
3.0243e-09
2.53158e-09
2.12461e-09
1.78699e-09
1.50588e-09
1.27093e-09
1.07408e-09
9.08316e-10
7.69319e-10
6.50694e-10
5.53824e-10
4.64864e-10
4.03176e-10
3.27465e-10
2.96431e-10
2.29008e-10
2.13397e-10
1.33275e-10
1.97918e-07
1.09967e-06
6.60516e-06
5.27711e-06
7.29689e-09
1.72796e-07
1.18234e-07
1.10242e-07
6.90081e-08
5.17756e-08
4.04681e-08
3.05052e-08
2.30918e-08
1.79099e-08
1.41918e-08
1.1413e-08
9.27283e-09
7.59064e-09
6.2503e-09
5.17184e-09
4.29708e-09
3.58266e-09
2.99589e-09
2.51171e-09
2.11055e-09
1.77692e-09
1.49856e-09
1.26551e-09
1.07e-09
9.05204e-10
7.6699e-10
6.48821e-10
5.52606e-10
4.63469e-10
4.02585e-10
3.26638e-10
2.955e-10
2.29631e-10
2.12473e-10
1.35116e-10
4.51227e-07
1.54354e-08
5.36612e-06
4.48488e-06
2.6962e-08
5.87083e-08
1.70876e-06
1.15215e-06
2.88082e-07
2.69715e-08
3.29672e-08
2.708e-08
2.14745e-08
1.69671e-08
1.35471e-08
1.09629e-08
8.96305e-09
7.37952e-09
6.10664e-09
5.07375e-09
4.22976e-09
3.53616e-09
2.96357e-09
2.48915e-09
2.09477e-09
1.76584e-09
1.49074e-09
1.26001e-09
1.06619e-09
9.02625e-10
7.65375e-10
6.47754e-10
5.52393e-10
4.62986e-10
4.03361e-10
3.26796e-10
2.96023e-10
2.31967e-10
2.12955e-10
1.40524e-10
2.84761e-10
3.2937e-06
4.62416e-06
4.77936e-08
4.0659e-07
2.68698e-07
3.91729e-08
1.78894e-08
1.35097e-09
2.91449e-10
3.03307e-10
1.12174e-08
1.47378e-08
1.38707e-08
1.22404e-08
1.05041e-08
8.87616e-09
7.44372e-09
6.22587e-09
5.20735e-09
4.3608e-09
3.6579e-09
3.07359e-09
2.58695e-09
2.18076e-09
1.84091e-09
1.55598e-09
1.31651e-09
1.11501e-09
9.44715e-10
8.01735e-10
6.78906e-10
5.79773e-10
4.85634e-10
4.24457e-10
3.43402e-10
3.11581e-10
2.46337e-10
2.2442e-10
1.53646e-10
1.80052e-07
2.37685e-06
8.65228e-12
3.67803e-07
1.68867e-07
6.65091e-10
1.76975e-09
2.17426e-08
8.03295e-08
8.91569e-08
6.20489e-08
3.93877e-08
2.58831e-08
1.81106e-08
1.35603e-08
1.07428e-08
8.7873e-09
7.29082e-09
6.08721e-09
5.09907e-09
4.28084e-09
3.60025e-09
3.03245e-09
2.55767e-09
2.15993e-09
1.82613e-09
1.54554e-09
1.30917e-09
1.10988e-09
9.41213e-10
7.99512e-10
6.77461e-10
5.79376e-10
4.8502e-10
4.25315e-10
3.43663e-10
3.12391e-10
2.49173e-10
2.25397e-10
1.59558e-10
1.27794e-07
3.45972e-08
2.99993e-07
1.57204e-07
1.39859e-09
1.79402e-07
3.32955e-08
1.52189e-07
1.49886e-07
9.27465e-08
5.78823e-08
3.82899e-08
2.48746e-08
1.67022e-08
1.24148e-08
1.00097e-08
8.34481e-09
7.01479e-09
5.90571e-09
4.97494e-09
4.19397e-09
3.53873e-09
2.98862e-09
2.52635e-09
2.13752e-09
1.81012e-09
1.53409e-09
1.30101e-09
1.10411e-09
9.37225e-10
7.96896e-10
6.75691e-10
5.7867e-10
4.84208e-10
4.25944e-10
3.43821e-10
3.13111e-10
2.51748e-10
2.26337e-10
1.64694e-10
1.75906e-07
1.404e-07
1.64546e-07
4.80007e-08
1.73896e-07
7.23338e-08
1.2026e-06
1.28967e-06
3.47201e-07
4.98341e-08
5.5708e-08
4.1675e-08
2.33165e-08
1.48825e-08
1.13614e-08
9.43644e-09
7.99774e-09
6.78195e-09
5.74154e-09
4.85713e-09
4.10898e-09
3.47736e-09
2.94434e-09
2.49444e-09
2.11455e-09
1.79359e-09
1.52222e-09
1.29252e-09
1.09809e-09
9.33027e-10
7.94078e-10
6.73753e-10
5.7776e-10
4.8331e-10
4.26356e-10
3.43882e-10
3.13697e-10
2.53916e-10
2.27162e-10
1.68897e-10
1.19162e-07
1.32023e-07
1.30625e-07
2.26243e-08
1.15538e-07
1.20723e-09
3.27425e-08
2.35182e-08
7.88089e-08
7.56718e-08
5.48387e-08
3.7092e-08
2.42798e-08
1.62508e-08
1.18803e-08
9.4581e-09
7.85253e-09
6.6154e-09
5.59919e-09
4.74655e-09
4.02628e-09
3.4165e-09
2.8999e-09
2.46214e-09
2.09114e-09
1.77665e-09
1.50998e-09
1.28371e-09
1.09179e-09
9.28579e-10
7.91008e-10
6.71602e-10
5.7658e-10
4.82283e-10
4.26442e-10
3.43766e-10
3.14047e-10
2.55508e-10
2.27767e-10
1.72002e-10
7.65756e-08
6.53356e-08
1.01305e-07
1.18235e-07
1.21543e-07
2.11028e-08
2.00964e-08
6.92376e-08
6.88175e-08
5.67797e-08
4.25812e-08
2.76371e-08
1.71777e-08
1.23096e-08
1.01106e-08
8.66831e-09
7.44626e-09
6.37053e-09
5.43535e-09
4.631e-09
3.94291e-09
3.35582e-09
2.85565e-09
2.42989e-09
2.06768e-09
1.7596e-09
1.4976e-09
1.27474e-09
1.08532e-09
9.23951e-10
7.87732e-10
6.69273e-10
5.75135e-10
4.8113e-10
4.26155e-10
3.43433e-10
3.14104e-10
2.56417e-10
2.28077e-10
1.7393e-10
7.72728e-08
6.45935e-08
6.30086e-08
5.73281e-08
8.2616e-08
7.62118e-08
4.91776e-08
5.49347e-08
5.32898e-08
4.23482e-08
3.24633e-08
2.3267e-08
1.65674e-08
1.25797e-08
1.02037e-08
8.56063e-09
7.27354e-09
6.20552e-09
5.29991e-09
4.52633e-09
3.86415e-09
3.29732e-09
2.81251e-09
2.39824e-09
2.04452e-09
1.74268e-09
1.48524e-09
1.26573e-09
1.07876e-09
9.19202e-10
7.84294e-10
6.66796e-10
5.73428e-10
4.79849e-10
4.25461e-10
3.42855e-10
3.13831e-10
2.56578e-10
2.28042e-10
1.74631e-10
3.73577e-08
3.68299e-08
5.24183e-08
5.79928e-08
5.59234e-08
4.38938e-08
3.30082e-08
4.21938e-08
3.99366e-08
3.17546e-08
2.32707e-08
1.68455e-08
1.30873e-08
1.09408e-08
9.40187e-09
8.11074e-09
6.9869e-09
6.00766e-09
5.15758e-09
4.42205e-09
3.78724e-09
3.24056e-09
2.77068e-09
2.36748e-09
2.02193e-09
1.7261e-09
1.47307e-09
1.2568e-09
1.07221e-09
9.14402e-10
7.80745e-10
6.64205e-10
5.71477e-10
4.7845e-10
4.24354e-10
3.4203e-10
3.13218e-10
2.55968e-10
2.27638e-10
1.74082e-10
3.83206e-08
3.57935e-08
3.39391e-08
3.32782e-08
4.11349e-08
3.97405e-08
3.18185e-08
2.55284e-08
2.33363e-08
2.03965e-08
1.71698e-08
1.44029e-08
1.2246e-08
1.05218e-08
9.0784e-09
7.84115e-09
6.76992e-09
5.83879e-09
5.02888e-09
4.32511e-09
3.71476e-09
3.18667e-09
2.73077e-09
2.338e-09
2.00019e-09
1.71007e-09
1.46124e-09
1.24808e-09
1.06576e-09
9.09623e-10
7.77139e-10
6.61543e-10
5.69314e-10
4.76953e-10
4.22859e-10
3.40975e-10
3.12279e-10
2.54606e-10
2.2687e-10
1.72282e-10
2.32928e-08
2.40735e-08
2.81926e-08
3.13214e-08
2.73252e-08
2.63691e-08
2.36101e-08
2.17384e-08
2.0335e-08
1.79273e-08
1.53336e-08
1.31695e-08
1.14175e-08
9.94418e-09
8.6657e-09
7.54087e-09
6.54848e-09
5.67421e-09
4.90611e-09
4.23347e-09
3.64647e-09
3.13588e-09
2.6931e-09
2.31009e-09
1.97952e-09
1.69478e-09
1.44992e-09
1.23969e-09
1.0595e-09
9.04939e-10
7.7354e-10
6.58857e-10
5.66989e-10
4.75392e-10
4.21027e-10
3.39725e-10
3.11052e-10
2.52556e-10
2.2577e-10
1.69252e-10
2.30242e-08
2.32121e-08
2.12599e-08
2.05441e-08
2.14956e-08
2.15342e-08
2.06776e-08
1.8908e-08
1.69692e-08
1.52428e-08
1.36465e-08
1.21363e-08
1.07372e-08
9.46297e-09
8.31119e-09
7.27541e-09
6.34879e-09
5.52396e-09
4.79324e-09
4.14888e-09
3.58325e-09
3.08876e-09
2.65804e-09
2.28404e-09
1.96018e-09
1.68041e-09
1.43924e-09
1.23173e-09
1.05352e-09
9.00426e-10
7.70014e-10
6.56203e-10
5.64565e-10
4.73808e-10
4.18931e-10
3.38333e-10
3.09598e-10
2.49919e-10
2.24402e-10
1.65039e-10
1.60483e-08
1.61773e-08
1.7041e-08
1.91005e-08
1.86826e-08
1.7733e-08
1.72712e-08
1.62683e-08
1.51134e-08
1.3906e-08
1.26433e-08
1.13764e-08
1.01632e-08
9.03103e-09
7.98687e-09
7.03203e-09
6.16605e-09
5.38673e-09
4.69024e-09
4.0717e-09
3.52552e-09
3.04567e-09
2.62591e-09
2.26011e-09
1.94235e-09
1.66714e-09
1.42934e-09
1.22432e-09
1.04791e-09
8.96159e-10
7.66634e-10
6.53639e-10
5.62114e-10
4.72246e-10
4.16664e-10
3.36865e-10
3.07999e-10
2.46838e-10
2.22857e-10
1.5974e-10
1.44218e-08
1.48846e-08
1.36646e-08
1.36619e-08
1.44385e-08
1.48099e-08
1.49147e-08
1.4367e-08
1.35837e-08
1.26995e-08
1.17205e-08
1.06842e-08
9.64683e-09
8.64527e-09
7.69781e-09
6.81497e-09
6.0029e-09
5.26406e-09
4.59808e-09
4.00257e-09
3.47376e-09
3.00696e-09
2.59699e-09
2.23852e-09
1.92624e-09
1.65511e-09
1.42033e-09
1.21754e-09
1.04275e-09
8.92215e-10
7.63469e-10
6.51224e-10
5.59714e-10
4.70757e-10
4.14334e-10
3.35396e-10
3.06351e-10
2.43488e-10
2.21252e-10
1.53532e-10
1.09354e-08
1.10956e-08
1.0817e-08
1.16423e-08
1.24412e-08
1.27322e-08
1.30035e-08
1.27857e-08
1.23195e-08
1.17074e-08
1.09547e-08
1.01008e-08
9.20549e-09
8.31214e-09
7.44658e-09
6.62563e-09
5.86029e-09
5.15672e-09
4.51738e-09
3.94199e-09
3.42833e-09
2.97294e-09
2.57153e-09
2.21948e-09
1.912e-09
1.64445e-09
1.41232e-09
1.21149e-09
1.03813e-09
8.88662e-10
7.60585e-10
6.49013e-10
5.57446e-10
4.69389e-10
4.12055e-10
3.34002e-10
3.04764e-10
2.40077e-10
2.19726e-10
1.46719e-10
8.99903e-09
9.28149e-09
8.64913e-09
9.13265e-09
1.01847e-08
1.09005e-08
1.14492e-08
1.15153e-08
1.13008e-08
1.08979e-08
1.03214e-08
9.61355e-09
8.83437e-09
8.03074e-09
7.23372e-09
6.46486e-09
5.73901e-09
5.06534e-09
4.44861e-09
3.89029e-09
3.38951e-09
2.94382e-09
2.54971e-09
2.20312e-09
1.89974e-09
1.63524e-09
1.40538e-09
1.20623e-09
1.03409e-09
8.85534e-10
7.58015e-10
6.47033e-10
5.55358e-10
4.68155e-10
4.0991e-10
3.32736e-10
3.03326e-10
2.36805e-10
2.18408e-10
1.39739e-10
6.97028e-09
7.0856e-09
6.75572e-09
7.41658e-09
8.59287e-09
9.50936e-09
1.02345e-08
1.0517e-08
1.04959e-08
1.02531e-08
9.81265e-09
9.21915e-09
8.53194e-09
7.80003e-09
7.05821e-09
6.33158e-09
5.63789e-09
4.98865e-09
4.39043e-09
3.84612e-09
3.35594e-09
2.91825e-09
2.53018e-09
2.18814e-09
1.88817e-09
1.62623e-09
1.39828e-09
1.20057e-09
1.02947e-09
8.8171e-10
7.54661e-10
6.44221e-10
5.5238e-10
4.66085e-10
4.068e-10
3.30741e-10
3.00991e-10
2.32686e-10
2.16445e-10
1.30846e-10
5.45947e-09
5.24655e-09
5.21606e-09
6.18794e-09
7.47173e-09
8.51244e-09
9.34504e-09
9.7747e-09
9.88246e-09
9.74419e-09
9.39446e-09
8.87983e-09
8.25795e-09
7.57827e-09
6.87762e-09
6.1832e-09
5.51457e-09
4.88472e-09
4.30144e-09
3.76859e-09
3.28712e-09
2.85597e-09
2.47271e-09
2.13409e-09
1.83641e-09
1.57581e-09
1.34841e-09
1.15053e-09
9.78594e-10
8.29443e-10
7.00038e-10
5.87513e-10
4.90407e-10
4.03795e-10
3.32969e-10
2.59173e-10
2.18789e-10
1.36789e-10
1.28284e-10
3.42068e-11
3.11329e-09
2.63094e-09
2.59766e-09
3.41109e-09
4.77291e-09
5.95956e-09
6.76207e-09
7.12813e-09
7.15883e-09
6.93783e-09
6.51295e-09
5.93648e-09
5.26482e-09
4.54536e-09
3.8146e-09
3.10178e-09
2.43115e-09
1.82309e-09
1.29468e-09
8.59043e-10
5.23374e-10
2.86359e-10
1.36687e-10
5.46507e-11
1.71289e-11
3.67676e-12
3.67916e-13
3.23045e-15
5.99008e-14
3.03918e-13
6.00716e-13
7.58492e-13
8.71944e-13
6.6857e-13
7.67979e-13
3.97805e-13
4.19016e-13
2.9191e-13
1.53261e-13
1.17244e-13
3.59876e-11
1.37207e-11
4.95033e-12
4.6285e-12
6.48446e-12
5.83694e-12
3.85016e-12
2.2375e-12
1.10821e-12
4.08478e-13
9.10074e-14
6.85691e-15
5.03857e-16
1.25287e-14
4.71061e-14
9.19709e-14
1.30455e-13
1.52641e-13
1.56746e-13
1.4637e-13
1.27145e-13
1.0435e-13
8.18212e-14
6.18019e-14
4.52546e-14
3.22881e-14
2.25445e-14
1.54577e-14
1.04459e-14
6.95948e-15
4.61798e-15
2.96772e-15
2.03168e-15
1.14935e-15
9.54426e-16
4.11648e-16
3.80202e-16
2.10277e-16
1.03845e-16
6.53658e-17
7.25323e-15
2.01757e-16
5.9326e-16
6.81887e-16
1.0279e-16
1.08079e-16
2.94984e-17
2.48944e-17
4.78164e-17
9.16914e-17
1.45911e-16
1.94066e-16
2.19484e-16
2.18471e-16
1.97772e-16
1.66811e-16
1.33328e-16
1.0218e-16
7.57192e-17
5.46046e-17
3.85153e-17
2.66724e-17
1.81831e-17
1.22244e-17
8.11649e-18
5.32827e-18
3.46719e-18
2.23691e-18
1.43808e-18
9.16025e-19
5.86021e-19
3.65864e-19
2.40856e-19
1.34848e-19
1.1028e-19
4.17494e-20
4.42808e-20
2.08428e-20
7.45938e-21
1.51462e-20
)
;

boundaryField
{
    inlet
    {
        type            calculated;
        value           nonuniform List<scalar> 
20
(
4.33351e-34
3.92741e-32
3.18612e-32
3.30334e-32
3.28372e-32
3.28303e-32
3.28476e-32
3.28452e-32
3.28451e-32
3.28327e-32
3.28147e-32
3.27864e-32
3.27584e-32
3.271e-32
3.26598e-32
3.25052e-32
3.28173e-32
3.08405e-32
3.99677e-32
4.33751e-34
)
;
    }
    outlet
    {
        type            calculated;
        value           nonuniform List<scalar> 
27
(
8.11829e-35
5.15539e-35
2.85771e-35
1.29712e-35
4.14504e-36
5.92123e-37
2.39814e-40
3.62796e-37
3.19629e-36
1.07149e-35
2.42949e-35
4.42918e-35
7.00658e-35
1.00194e-34
1.32775e-34
1.61031e-34
2.44505e-34
5.46888e-36
1.45484e-38
6.8219e-41
6.10898e-41
1.19077e-38
3.75697e-36
5.25029e-34
1.97569e-34
1.52339e-34
1.15435e-34
)
;
    }
    lowerWall
    {
        type            fixedValue;
        value           uniform 0;
    }
    upperWall
    {
        type            fixedValue;
        value           uniform 0;
    }
    defaultFaces
    {
        type            empty;
    }
}


// ************************************************************************* //
