/*--------------------------------*- C++ -*----------------------------------*\
| =========                 |                                                 |
| \\      /  F ield         | OpenFOAM: The Open Source CFD Toolbox           |
|  \\    /   O peration     | Version:  2112                                  |
|   \\  /    A nd           | Website:  www.openfoam.com                      |
|    \\/     M anipulation  |                                                 |
\*---------------------------------------------------------------------------*/
FoamFile
{
    version     2.0;
    format      ascii;
    arch        "LSB;label=32;scalar=64";
    class       volScalarField;
    location    "0.06";
    object      p;
}
// * * * * * * * * * * * * * * * * * * * * * * * * * * * * * * * * * * * * * //

dimensions      [0 2 -2 0 0 0 0];

internalField   nonuniform List<scalar> 
1880
(
0.00526763
0.00507418
0.00496341
0.00496475
0.00494927
0.00489331
0.00485728
0.00485085
0.00484563
0.00483359
0.00482316
0.00481806
0.00481678
0.00481842
0.00482358
0.00483317
0.00484806
0.00486925
0.00489805
0.00493616
0.00498543
0.00504951
0.00512932
0.00523648
0.00536145
0.00554456
0.00573754
0.00606496
0.00640157
0.00698941
0.00509135
0.0050072
0.0049321
0.00494273
0.00493736
0.00488475
0.00484953
0.0048464
0.00484368
0.00483168
0.00482065
0.00481524
0.0048136
0.00481464
0.00481901
0.00482765
0.00484133
0.00486106
0.00488783
0.00492359
0.00496925
0.00502914
0.00510215
0.005199
0.00531067
0.00546078
0.00562533
0.00584318
0.00605747
0.00628043
0.00505861
0.00498939
0.00492263
0.00493692
0.00493456
0.0048838
0.00484945
0.00484638
0.00484281
0.00482936
0.0048169
0.00481027
0.00480748
0.00480717
0.00480994
0.00481666
0.00482798
0.00484474
0.00486778
0.00489859
0.00493801
0.00498865
0.00505069
0.00512814
0.00521994
0.00532838
0.0054532
0.00558343
0.00572712
0.00581894
0.00500151
0.00494685
0.00489242
0.00491393
0.00491734
0.00487104
0.00483944
0.00483815
0.00483569
0.00482248
0.00480958
0.00480205
0.004798
0.00479606
0.00479675
0.00480089
0.00480898
0.00482175
0.00483963
0.00486407
0.00489479
0.00493482
0.00498156
0.00503987
0.00510518
0.00517693
0.00525655
0.00532173
0.00538307
0.00537924
0.00497367
0.00492513
0.00487639
0.00490162
0.00490759
0.00486309
0.00483245
0.0048314
0.00482865
0.00481471
0.00480074
0.00479183
0.00478606
0.004782
0.0047801
0.00478105
0.00478519
0.00479308
0.00480482
0.00482162
0.00484254
0.0048701
0.00490086
0.00493826
0.00497777
0.00501412
0.00505468
0.00506385
0.00507768
0.00501723
0.00494798
0.0049018
0.00485643
0.00488473
0.00489329
0.004851
0.0048219
0.00482161
0.00481902
0.00480469
0.00478977
0.00477944
0.00477179
0.00476536
0.0047605
0.00475782
0.00475751
0.00475994
0.00476492
0.00477339
0.00478384
0.0047986
0.00481311
0.0048309
0.00484587
0.00485327
0.00485915
0.00483166
0.00479871
0.00471297
0.00492897
0.00488452
0.00484137
0.00487167
0.00488172
0.00484052
0.00481208
0.00481191
0.00480894
0.0047938
0.00477765
0.00476564
0.00475586
0.00474678
0.00473869
0.00473207
0.00472698
0.00472361
0.00472153
0.00472144
0.00472145
0.00472359
0.00472285
0.00472256
0.00471609
0.00469891
0.00467724
0.00462021
0.00455838
0.0044491
0.00491405
0.00487037
0.00482836
0.00485977
0.00487072
0.00483018
0.00480203
0.00480172
0.00479821
0.00478213
0.00476459
0.00475076
0.0047387
0.00472684
0.00471535
0.00470463
0.00469461
0.00468534
0.00467623
0.00466771
0.00465769
0.00464796
0.00463335
0.00461696
0.00459206
0.00455479
0.00451049
0.00443278
0.0043457
0.00422405
0.00490266
0.00485934
0.00481789
0.00484986
0.00486118
0.0048208
0.00479252
0.00479176
0.00478745
0.00477019
0.0047511
0.00473534
0.00472089
0.00470612
0.00469116
0.00467631
0.00466141
0.00464635
0.00463041
0.00461385
0.00459454
0.00457394
0.00454703
0.00451659
0.00447617
0.0044226
0.00436041
0.00426678
0.00416347
0.00403079
0.00489452
0.00485128
0.00480994
0.00484196
0.00485321
0.00481256
0.00478379
0.00478228
0.00477692
0.00475833
0.00473758
0.00471978
0.00470288
0.00468519
0.0046668
0.00464791
0.00462828
0.00460766
0.00458531
0.00456129
0.00453355
0.00450322
0.00446562
0.00442316
0.00436989
0.00430335
0.00422696
0.00412219
0.00400636
0.00386649
0.00488954
0.00484617
0.00480457
0.00483623
0.004847
0.00480568
0.00477605
0.00477352
0.00476694
0.00474688
0.00472436
0.00470447
0.00468514
0.0046646
0.00464288
0.00462012
0.004596
0.00457021
0.00454196
0.00451118
0.00447593
0.00443703
0.00439031
0.00433772
0.00427399
0.00419722
0.00410984
0.00399712
0.00387275
0.00372734
0.0048878
0.00484412
0.00480193
0.00483282
0.00484273
0.00480035
0.00476954
0.00476574
0.00475776
0.00473611
0.00471175
0.0046898
0.00466809
0.00464482
0.00461994
0.00459355
0.00456529
0.00453477
0.00450121
0.0044644
0.00442259
0.00437628
0.0043219
0.0042609
0.00418876
0.00410405
0.00400828
0.0038902
0.00375978
0.00361068
0.00488961
0.00484535
0.00480211
0.00483171
0.0048402
0.00479648
0.0047642
0.00475897
0.00474947
0.00472617
0.0047
0.00467604
0.00465208
0.00462624
0.00459844
0.00456874
0.00453673
0.00450198
0.00446372
0.00442163
0.00437418
0.0043216
0.00426087
0.004193
0.0041142
0.0040234
0.00392138
0.00379977
0.00366543
0.0035141
0.00489564
0.00485046
0.00480575
0.00483368
0.00484048
0.00479483
0.00476069
0.00475368
0.0047424
0.00471737
0.00468938
0.00466349
0.00463742
0.00460923
0.0045788
0.00454613
0.0045108
0.00447235
0.00443001
0.00438341
0.0043312
0.00427338
0.00420746
0.00413406
0.00405008
0.00395471
0.00384813
0.00372432
0.00358766
0.00343542
0.00490609
0.00485894
0.00481152
0.00483679
0.00484121
0.00479335
0.00475724
0.00474851
0.00473576
0.00470931
0.00467978
0.00465221
0.00462429
0.00459404
0.00456131
0.00452607
0.0044879
0.00444627
0.00440049
0.00435011
0.00429397
0.00423187
0.0041618
0.00408403
0.00399609
0.00389733
0.00378752
0.00366245
0.0035247
0.00337253
0.00492522
0.00487556
0.00482443
0.00484613
0.00484729
0.0047963
0.00475742
0.00474638
0.00473158
0.00470312
0.00467183
0.00464264
0.00461305
0.00458099
0.00454629
0.00450889
0.00446832
0.00442407
0.00437546
0.00432201
0.00426269
0.00419719
0.00412387
0.00404274
0.00395185
0.00385064
0.0037386
0.00361294
0.00347489
0.00332344
0.0049462
0.00489031
0.00483321
0.00485073
0.00484871
0.00479505
0.0047541
0.00474164
0.00472576
0.00469618
0.00466443
0.00463432
0.00460354
0.00457012
0.00453388
0.00449476
0.00445231
0.00440598
0.00435515
0.00429929
0.00423751
0.00416939
0.00409362
0.00401001
0.00391698
0.00381409
0.00370056
0.00357474
0.00343687
0.00328647
0.00499941
0.00492874
0.00485898
0.00486886
0.00486054
0.00480183
0.00475748
0.00474243
0.00472437
0.00469363
0.00465982
0.00462831
0.00459638
0.00456182
0.00452437
0.00448394
0.00444006
0.00439219
0.0043397
0.00428207
0.0042185
0.00414849
0.00407097
0.00398561
0.00389112
0.00378717
0.00367275
0.00354711
0.0034096
0.00326031
0.00502819
0.00494259
0.0048643
0.00487017
0.00485845
0.00479741
0.00475161
0.00473586
0.00471793
0.00468764
0.00465446
0.00462314
0.00459088
0.00455579
0.00451769
0.00447646
0.00443168
0.0043828
0.00432924
0.00427045
0.00420571
0.00413449
0.00405583
0.00396941
0.00387397
0.00376951
0.00365456
0.00352943
0.00339253
0.00324432
0.00520308
0.00500803
0.00489383
0.00489017
0.00486806
0.00480348
0.00475676
0.00473754
0.0047168
0.00468604
0.00465307
0.00462116
0.00458835
0.00455287
0.0045144
0.00447277
0.00442752
0.00437815
0.00432407
0.00426472
0.00419943
0.00412765
0.0040485
0.00396156
0.00386578
0.00376101
0.00364606
0.00352128
0.00338544
0.0032392
0.00737203
0.00608513
0.00552977
0.00492521
0.00408568
0.0034309
0.00186698
0.00187868
-0.00120147
-0.00105149
0.00634529
0.00537837
0.00490127
0.00422063
0.0035768
0.00270444
0.00160679
0.000996348
-0.000890657
-0.00283604
0.00588693
0.00521661
0.00475664
0.00419187
0.00353156
0.00279727
0.00177408
0.000993313
-0.000673684
-0.00237205
0.00529964
0.00480184
0.00423748
0.00375845
0.00304032
0.00231815
0.00153653
0.00057683
-0.000464015
-0.00191629
0.00494244
0.00452091
0.00410191
0.00359146
0.00303177
0.00237205
0.00158691
0.000759282
-0.000108758
-0.0011258
0.00457685
0.00424921
0.00375123
0.00331297
0.00273403
0.00211585
0.00146762
0.000690029
4.94831e-05
-0.00075513
0.00431067
0.00400053
0.00360108
0.00316738
0.00267781
0.00212912
0.00152457
0.000893805
0.000341345
-0.000253464
0.00406282
0.00379406
0.00339386
0.00298752
0.00253628
0.00201656
0.00149522
0.000946382
0.000481346
1.23262e-05
0.00386691
0.00361327
0.00326252
0.00288325
0.00246996
0.00202427
0.00156181
0.00110083
0.000696924
0.00032259
0.00369558
0.00346206
0.00313535
0.00277472
0.00239914
0.00199225
0.00158679
0.00117803
0.000820721
0.000496905
0.00355564
0.00333575
0.00303809
0.00270624
0.00235856
0.00200305
0.00164239
0.00128551
0.000967839
0.000689417
0.00343844
0.00322973
0.00295593
0.00264647
0.00232717
0.00200402
0.00168079
0.00135909
0.00106968
0.000814865
0.00334271
0.00314274
0.0028903
0.00260505
0.00231056
0.00201806
0.00172478
0.00143385
0.00116903
0.000936013
0.00326524
0.00307188
0.00283743
0.002573
0.00230088
0.00203074
0.00176073
0.00149299
0.00124611
0.00102654
0.003204
0.00301591
0.00279607
0.00255041
0.00229745
0.00204596
0.00179454
0.00154542
0.00131347
0.00110502
0.00315688
0.00297317
0.00276489
0.00253493
0.00229783
0.00206076
0.00182364
0.00158876
0.00136786
0.00116713
0.00312205
0.00294214
0.00274278
0.0025254
0.00230064
0.00207463
0.00184849
0.00162446
0.00141201
0.00121702
0.00309804
0.00292149
0.00272933
0.00252193
0.00230648
0.0020885
0.00187047
0.00165409
0.00144769
0.00125637
0.00308356
0.00290942
0.00272227
0.00252171
0.00231259
0.00209969
0.00188721
0.00167613
0.00147319
0.00128344
0.00308163
0.0029111
0.00272763
0.0025309
0.00232513
0.00211517
0.00190518
0.00169726
0.00149628
0.00130702
-0.00823827
-0.00865734
-0.00830922
-0.00639002
-0.00351456
-0.001311
6.22759e-05
0.000802541
0.00110215
0.00118288
0.00116008
0.00109527
0.00101795
0.000940882
0.000868866
0.000803169
0.000743649
0.000689668
0.000640468
0.00059532
0.00055358
0.000514702
0.00047823
0.000443786
0.000411055
0.000379766
0.000349693
0.000320648
0.000292475
0.000265045
0.000238247
0.000211981
0.000186165
0.000160708
0.000135561
0.000110635
8.59013e-05
6.13047e-05
3.67593e-05
1.22719e-05
-0.00850307
-0.00905287
-0.00899493
-0.00691241
-0.00376374
-0.00144983
-2.13348e-05
0.000732318
0.00104249
0.00113249
0.00111883
0.00106247
0.000992394
0.00092116
0.000853636
0.000791335
0.000734371
0.000682321
0.000634593
0.000590581
0.000549724
0.000511539
0.00047562
0.000441624
0.000409254
0.00037826
0.00034843
0.000319586
0.00029158
0.000264291
0.000237611
0.000211447
0.000185717
0.000160336
0.000135252
0.000110386
8.57004e-05
6.11557e-05
3.66625e-05
1.22311e-05
-0.0091361
-0.0107069
-0.0111654
-0.00849353
-0.00448177
-0.00179593
-0.00023638
0.000565487
0.000911269
0.00102912
0.00103847
0.00100101
0.000945921
0.000886119
0.00082709
0.000771038
0.000718677
0.000670039
0.000624869
0.0005828
0.000543437
0.000506416
0.000471415
0.000438152
0.000406372
0.000375856
0.000346416
0.000317895
0.000290159
0.000263095
0.000236606
0.000210605
0.000185012
0.000159752
0.000134769
0.000109999
8.5397e-05
6.09322e-05
3.65252e-05
1.21777e-05
-0.0107089
-0.0125343
-0.0149921
-0.0114868
-0.0056127
-0.0023391
-0.000582894
0.000291227
0.000704909
0.000876835
0.000927194
0.000919841
0.000886437
0.000842072
0.000794027
0.000745858
0.00069923
0.000654823
0.000612819
0.000573152
0.000535639
0.000500062
0.0004662
0.000433843
0.000402793
0.000372869
0.000343914
0.000315795
0.000288394
0.000261612
0.00023536
0.000209561
0.00018414
0.00015903
0.000134178
0.000109528
8.50351e-05
6.06731e-05
3.63707e-05
1.21252e-05
-0.0105393
-0.016465
-0.0198069
-0.0160651
-0.0071792
-0.00308938
-0.00110392
-0.000100423
0.000425651
0.000681301
0.000789353
0.000821696
0.00081553
0.000789929
0.000754992
0.000716137
0.000676252
0.000636818
0.000598539
0.000561705
0.000526377
0.000492507
0.000459993
0.000428711
0.000398526
0.000369306
0.00034093
0.000313289
0.000286286
0.000259839
0.000233871
0.000208313
0.000183099
0.00015817
0.000133478
0.000108972
8.4611e-05
6.03728e-05
3.61919e-05
1.20646e-05
-0.0127602
-0.0189398
-0.0250267
-0.0186967
-0.00908674
-0.0041992
-0.00203975
-0.000691039
7.86839e-05
0.000461715
0.000641841
0.000718787
0.000741308
0.000734824
0.00071315
0.000683843
0.000651003
0.000616856
0.0005826
0.00054886
0.00051594
0.000483964
0.000452954
0.000422876
0.000393666
0.000365242
0.00033752
0.000310421
0.000283872
0.000257807
0.000232163
0.000206881
0.000181906
0.000157185
0.000132677
0.000108338
8.41291e-05
6.00333e-05
3.59903e-05
1.1997e-05
-0.00799535
-0.0198332
-0.02534
-0.0176663
-0.00895727
-0.00463434
-0.00288773
-0.00146176
-0.000405145
0.000186031
0.000473293
0.000605842
0.000661609
0.000676465
0.000669073
0.000649772
0.000624225
0.000595546
0.000565472
0.000534974
0.000504596
0.000474635
0.000445237
0.000416459
0.000388306
0.000360747
0.000333741
0.000307238
0.000281189
0.000255545
0.000230259
0.000205284
0.000180575
0.000156087
0.000131786
0.000107632
8.35941e-05
5.96577e-05
3.57675e-05
1.19224e-05
-0.00658394
-0.0136907
-0.0199979
-0.0136505
-0.00682
-0.00358211
-0.00239353
-0.00134093
-0.000400579
0.000128653
0.000401238
0.000543509
0.000607997
0.00062988
0.000629484
0.000616853
0.000597176
0.000573419
0.000547367
0.000520116
0.000492352
0.000464498
0.000436806
0.000409417
0.0003824
0.000355781
0.000329554
0.000303704
0.000278203
0.000253024
0.000228135
0.000203501
0.000179088
0.000154859
0.000130789
0.000106844
8.29973e-05
5.92391e-05
3.55194e-05
1.18394e-05
-0.00567115
-0.0094081
-0.0119097
-0.00845222
-0.00514519
-0.0034187
-0.00216252
-0.000874675
-4.59819e-05
0.000277173
0.00042473
0.000505568
0.000554758
0.000580293
0.00058771
0.000582557
0.000569152
0.000550474
0.000528503
0.000504535
0.000479423
0.000453723
0.00042779
0.000401846
0.000376024
0.000350397
0.000325001
0.000299848
0.000274938
0.000250262
0.000225803
0.000201541
0.000177452
0.000153508
0.000129693
0.000105977
8.23408e-05
5.87787e-05
3.52465e-05
1.17481e-05
-0.00371064
-0.00540287
-0.0076452
-0.00624972
-0.0040921
-0.00333868
-0.00278051
-0.00125768
5.55474e-05
0.000496919
0.000558187
0.000556212
0.000556732
0.000559176
0.000559288
0.00055441
0.00054396
0.000528802
0.000510157
0.000489098
0.000466447
0.000442803
0.000418583
0.000394067
0.000369438
0.000344811
0.000320257
0.000295818
0.000271516
0.00024736
0.00022335
0.000199476
0.000175726
0.000152082
0.000128534
0.000105061
8.16467e-05
5.82918e-05
3.49579e-05
1.16517e-05
-0.00219547
-0.00332319
-0.00442859
-0.00372803
-0.00261439
-0.00221885
-0.00206562
-0.00137324
-0.00061862
-0.000113168
0.000172975
0.000338273
0.000435216
0.000488566
0.000513599
0.000521061
0.000517638
0.000507207
0.000492123
0.000473914
0.000453611
0.000431925
0.000409347
0.000386213
0.00036275
0.000339112
0.000315398
0.000291675
0.000267987
0.00024436
0.000220807
0.000197332
0.000173932
0.000150598
0.000127328
0.000104106
8.09232e-05
5.77842e-05
3.4657e-05
1.15511e-05
-0.0013596
-0.00208558
-0.00289155
-0.00297775
-0.00252597
-0.00178766
-0.001126
-0.000471869
5.86944e-07
0.000251321
0.000368659
0.000426166
0.000458562
0.000479655
0.000492887
0.000498156
0.000496053
0.000487974
0.000475374
0.000459472
0.00044121
0.000421295
0.000400239
0.00037841
0.000356065
0.000333384
0.000310491
0.000287476
0.000264399
0.000241301
0.000218209
0.000195137
0.000172093
0.000149075
0.000126089
0.000103124
8.01787e-05
5.72617e-05
3.43473e-05
1.14477e-05
-0.00091864
-0.00129291
-0.00180422
-0.00187909
-0.0014485
-0.00110544
-0.000904127
-0.000660406
-0.000343471
-6.59853e-05
0.000140295
0.000283913
0.000376574
0.000430929
0.000459757
0.000472502
0.000474727
0.000469714
0.000459584
0.000445788
0.00042936
0.000411044
0.000391383
0.000370766
0.000349473
0.000327704
0.000305603
0.000283276
0.000260797
0.000238222
0.000215587
0.000192918
0.00017023
0.000147531
0.000124831
0.000102126
7.94219e-05
5.67303e-05
3.40323e-05
1.13424e-05
-0.000446284
-0.000722355
-0.00110117
-0.00132176
-0.00127144
-0.000974982
-0.000641353
-0.000306964
-3.17548e-05
0.000148459
0.000261452
0.000335025
0.000385629
0.000420727
0.000442934
0.000454398
0.000457361
0.000453801
0.000445315
0.000433144
0.000418236
0.000401306
0.000382886
0.000363373
0.000343053
0.00032214
0.000300791
0.000279124
0.000257225
0.000235159
0.000212973
0.0001907
0.000168366
0.000145983
0.000123568
0.000101124
7.86613e-05
5.6196e-05
3.37155e-05
1.12365e-05
-0.000183449
-0.000372939
-0.00063893
-0.000785298
-0.000692618
-0.000523504
-0.000386389
-0.000234315
-7.51005e-05
7.57504e-05
0.000201152
0.000294939
0.000358933
0.000399953
0.000424653
0.000437585
0.000441829
0.000439568
0.000432407
0.000421551
0.000407906
0.00039216
0.00037483
0.000356304
0.000336872
0.000316751
0.000296108
0.000275066
0.00025372
0.000232145
0.000210395
0.000188509
0.000166521
0.000144448
0.000122315
0.000100129
7.79051e-05
5.56645e-05
3.34001e-05
1.11311e-05
0.000124723
-4.77004e-05
-0.000255683
-0.000421335
-0.000473153
-0.00039012
-0.000246632
-0.000101242
4.0137e-05
0.000155483
0.00024342
0.000309808
0.000358321
0.000391814
0.000413187
0.000424932
0.000429096
0.000427341
0.00042099
0.000411083
0.000398432
0.000383667
0.000367272
0.000349617
0.000330983
0.000311588
0.000291597
0.000271141
0.00025032
0.000229213
0.00020788
0.000186367
0.000164714
0.000142943
0.000121085
9.91504e-05
7.71612e-05
5.51414e-05
3.30896e-05
1.10272e-05
0.000296459
0.000123702
-2.63261e-05
-0.000154349
-0.000202844
-0.000158023
-7.66595e-05
1.38948e-05
0.000104012
0.000186902
0.000257781
0.000314044
0.000355942
0.00038528
0.000404222
0.000414732
0.00041848
0.000416848
0.00041096
0.000401714
0.000389825
0.000375857
0.000360252
0.000343353
0.000325429
0.000306689
0.000287298
0.000267385
0.000247055
0.000226389
0.000205452
0.000184296
0.000162964
0.000141483
0.000119889
9.8199e-05
7.64374e-05
5.4632e-05
3.27872e-05
1.09261e-05
0.000498058
0.000350186
0.000204361
7.40342e-05
-2.54925e-06
-5.2914e-06
4.09814e-05
0.000103141
0.000167347
0.000228406
0.000281992
0.000325666
0.000359007
0.000382839
0.000398425
0.000407045
0.000409882
0.000407984
0.000402245
0.000393406
0.000382073
0.000368736
0.000353787
0.000337539
0.00032024
0.000302088
0.000283241
0.000263828
0.000243952
0.000223698
0.000203134
0.000182314
0.000161286
0.000140081
0.000118741
9.7284e-05
7.57407e-05
5.41414e-05
3.24957e-05
1.08286e-05
0.00062987
0.000478806
0.000350812
0.000232345
0.000150868
0.000126874
0.00014673
0.000183747
0.000225142
0.000266788
0.000305416
0.000338209
0.000363901
0.000382533
0.000394725
0.000401258
0.000402938
0.000400527
0.000394712
0.000386084
0.00037514
0.000362293
0.000347884
0.000332191
0.000315437
0.000297807
0.000279451
0.000260493
0.000241036
0.000221163
0.000200946
0.00018044
0.000159697
0.000138752
0.000117651
9.64143e-05
7.50779e-05
5.36743e-05
3.22181e-05
1.07357e-05
0.000754604
0.000611917
0.000485547
0.000369225
0.000280909
0.000238628
0.000236413
0.000252911
0.000276179
0.000302285
0.000328344
0.000351512
0.00037015
0.000383803
0.000392616
0.00039697
0.000397349
0.000394268
0.000388222
0.000379658
0.000368972
0.000356502
0.000342536
0.000327313
0.000311033
0.000293865
0.000275949
0.000257402
0.000238326
0.000218803
0.000198904
0.000178689
0.000158211
0.000137507
0.000116628
9.55977e-05
7.4455e-05
5.32349e-05
3.19567e-05
1.06482e-05
0.000850568
0.000707833
0.000585784
0.00047292
0.000381919
0.000328736
0.000310802
0.000311485
0.000320399
0.000333931
0.000349489
0.000364365
0.000376753
0.000385869
0.000391509
0.000393746
0.000392804
0.000388986
0.000382621
0.000374029
0.000363509
0.00035133
0.000337727
0.000322904
0.000307036
0.000290275
0.00027275
0.000254572
0.00023584
0.000216634
0.000197026
0.000177075
0.000156839
0.000136357
0.000115682
9.48415e-05
7.38775e-05
5.28271e-05
3.17139e-05
1.05669e-05
0.000931128
0.000789612
0.000668546
0.000557101
0.000463981
0.000402693
0.00037247
0.000360482
0.00035788
0.000361248
0.000368147
0.000376021
0.000383013
0.000388131
0.000390917
0.000391206
0.000389014
0.000384471
0.000377761
0.000369095
0.000358685
0.000346737
0.000333437
0.000318957
0.000303448
0.000287044
0.000269866
0.000252017
0.000233592
0.000214671
0.000195323
0.000175611
0.000155593
0.000135311
0.000114821
9.41522e-05
7.33503e-05
5.24542e-05
3.14915e-05
1.04924e-05
0.000995666
0.000853665
0.000732341
0.000621945
0.000528038
0.00046137
0.000421986
0.000400167
0.000388527
0.000383829
0.000383735
0.000385855
0.000388342
0.000390074
0.000390412
0.00038901
0.000385721
0.00038053
0.000373504
0.00036476
0.000354437
0.000342684
0.000329647
0.000315465
0.00030027
0.00028418
0.000267307
0.000249749
0.000231596
0.000212926
0.000193809
0.000174308
0.000154483
0.000134378
0.000114051
9.35353e-05
7.28776e-05
5.21188e-05
3.12911e-05
1.0425e-05
0.00104679
0.000903594
0.000780925
0.000670997
0.000576912
0.000506565
0.000460309
0.000430946
0.000412348
0.000401398
0.000395823
0.000393382
0.00039227
0.000391279
0.000389641
0.000386874
0.0003827
0.000376994
0.000369727
0.000360939
0.000350708
0.000339136
0.000326335
0.000312419
0.0002975
0.000281687
0.000265082
0.000247778
0.000229862
0.00021141
0.000192494
0.000173176
0.000153518
0.000133566
0.00011338
9.29956e-05
7.24625e-05
5.18225e-05
3.11136e-05
1.0365e-05
0.00108659
0.000941205
0.000816591
0.000706878
0.000612915
0.000539869
0.000488365
0.000453268
0.000429435
0.000413793
0.000404095
0.000398223
0.000394413
0.000391398
0.000388307
0.000384554
0.000379765
0.000373723
0.00036633
0.000357562
0.000347454
0.000336068
0.000323491
0.000309817
0.000295145
0.000279574
0.000263201
0.000246116
0.000228402
0.000210136
0.000191389
0.000172225
0.000152706
0.000132883
0.000112813
9.25385e-05
7.21083e-05
5.1567e-05
3.09601e-05
1.03131e-05
0.00111215
0.000964099
0.000837687
0.000728515
0.000635358
0.000560858
0.000505882
0.000466944
0.000439614
0.000420816
0.000408321
0.000400129
0.000394522
0.00039019
0.000386191
0.000381861
0.000376751
0.000370583
0.000363201
0.000354541
0.000344602
0.000333422
0.000321068
0.000307622
0.000293174
0.000277819
0.000261648
0.000244749
0.000227205
0.000209095
0.000190487
0.00017145
0.000152044
0.000132325
0.000112346
9.21603e-05
7.18101e-05
5.13453e-05
3.08229e-05
1.02599e-05
0.00113345
0.000980157
0.000849815
0.000740194
0.000647356
0.000571788
0.000514524
0.000473145
0.000443709
0.000423125
0.00040913
0.000399748
0.000393266
0.000388339
0.000383973
0.000379453
0.000374287
0.000368157
0.000360879
0.000352365
0.000342593
0.000331591
0.000319416
0.000306144
0.000291861
0.000276659
0.000260628
0.000243857
0.000226429
0.000208421
0.000189906
0.000170951
0.000151617
0.000131966
0.000112043
9.19139e-05
7.16122e-05
5.11964e-05
3.07268e-05
1.02203e-05
)
;

boundaryField
{
    inlet
    {
        type            zeroGradient;
    }
    outlet
    {
        type            fixedValue;
        value           uniform 0;
    }
    lowerWall
    {
        type            zeroGradient;
    }
    upperWall
    {
        type            zeroGradient;
    }
    defaultFaces
    {
        type            empty;
    }
}


// ************************************************************************* //
