/*--------------------------------*- C++ -*----------------------------------*\
| =========                 |                                                 |
| \\      /  F ield         | OpenFOAM: The Open Source CFD Toolbox           |
|  \\    /   O peration     | Version:  2112                                  |
|   \\  /    A nd           | Website:  www.openfoam.com                      |
|    \\/     M anipulation  |                                                 |
\*---------------------------------------------------------------------------*/
FoamFile
{
    version     2.0;
    format      ascii;
    arch        "LSB;label=32;scalar=64";
    class       volVectorField;
    location    "0.06";
    object      U;
}
// * * * * * * * * * * * * * * * * * * * * * * * * * * * * * * * * * * * * * //

dimensions      [0 1 -1 0 0 0 0];

internalField   nonuniform List<vector> 
1880
(
(0.0984945 0.000610557 0)
(0.0984691 0.00102391 0)
(0.0983277 0.00136437 0)
(0.0955914 0.0014844 0)
(0.0934974 0.00128389 0)
(0.0926983 0.000961974 0)
(0.0917969 0.000663007 0)
(0.0908155 0.000419666 0)
(0.0902306 0.00025495 0)
(0.089948 0.000167397 0)
(0.0897176 0.000127805 0)
(0.0894798 0.000111571 0)
(0.0892509 0.000108339 0)
(0.0890226 0.000114285 0)
(0.0887756 0.000126884 0)
(0.0884954 0.000144872 0)
(0.0881726 0.000169333 0)
(0.0877917 0.000198891 0)
(0.087347 0.000240646 0)
(0.0867952 0.000281977 0)
(0.0861737 0.000363761 0)
(0.0853091 0.000400815 0)
(0.0844653 0.000599808 0)
(0.0829697 0.000565583 0)
(0.0818541 0.00108509 0)
(0.0791573 0.000890995 0)
(0.0773226 0.00212782 0)
(0.0726925 0.00187459 0)
(0.0680513 0.00512617 0)
(0.0588054 0.00563195 0)
(0.0995366 0.000747019 0)
(0.100027 0.00124862 0)
(0.101606 0.00161887 0)
(0.101035 0.0018451 0)
(0.100734 0.0017273 0)
(0.101336 0.00142085 0)
(0.101432 0.00109241 0)
(0.101009 0.000791547 0)
(0.100699 0.000562634 0)
(0.100559 0.000426379 0)
(0.1004 0.000359696 0)
(0.100192 0.000333982 0)
(0.0999743 0.000334467 0)
(0.0997501 0.000355613 0)
(0.0995041 0.000394606 0)
(0.0992251 0.000449575 0)
(0.0989023 0.000522872 0)
(0.0985276 0.000613746 0)
(0.0980787 0.000735959 0)
(0.0975603 0.000870287 0)
(0.0968957 0.0010914 0)
(0.0961883 0.00125341 0)
(0.0951076 0.00174408 0)
(0.0942307 0.0018005 0)
(0.0922799 0.00307992 0)
(0.0913897 0.00268164 0)
(0.087821 0.00581469 0)
(0.0869574 0.00503429 0)
(0.0813801 0.0112609 0)
(0.0804548 0.0126119 0)
(0.0995389 0.000268196 0)
(0.0998993 0.000606728 0)
(0.101435 0.00089782 0)
(0.100895 0.00113449 0)
(0.100683 0.0012203 0)
(0.101394 0.00115033 0)
(0.101584 0.000996347 0)
(0.10123 0.00082516 0)
(0.100971 0.000681833 0)
(0.100868 0.000586477 0)
(0.100735 0.000536144 0)
(0.100547 0.000521892 0)
(0.100348 0.000537038 0)
(0.100144 0.000577965 0)
(0.0999206 0.000643589 0)
(0.0996664 0.000734039 0)
(0.0993728 0.000852319 0)
(0.0990338 0.00100096 0)
(0.0986295 0.00119138 0)
(0.0981663 0.00142157 0)
(0.0975811 0.0017326 0)
(0.0969593 0.00208142 0)
(0.0960499 0.00263523 0)
(0.0952999 0.0031341 0)
(0.0937481 0.00428112 0)
(0.0930906 0.004837 0)
(0.0903857 0.00752664 0)
(0.0900571 0.00791068 0)
(0.0863604 0.0134976 0)
(0.0854348 0.0149515 0)
(0.0995427 0.000243415 0)
(0.0997556 0.000585506 0)
(0.101167 0.000868886 0)
(0.100525 0.00111812 0)
(0.10026 0.00124949 0)
(0.10099 0.00122985 0)
(0.101249 0.00111454 0)
(0.100978 0.000968661 0)
(0.100801 0.00083713 0)
(0.10077 0.000744628 0)
(0.100694 0.000696974 0)
(0.100551 0.000689657 0)
(0.100388 0.00071729 0)
(0.100215 0.00077686 0)
(0.100021 0.00086732 0)
(0.099798 0.000989663 0)
(0.0995388 0.00114802 0)
(0.0992429 0.00134592 0)
(0.0988848 0.001597 0)
(0.098496 0.00189982 0)
(0.097971 0.00230162 0)
(0.0975015 0.00275276 0)
(0.0966605 0.00344167 0)
(0.0962288 0.00407869 0)
(0.094793 0.00538474 0)
(0.0946543 0.00618247 0)
(0.0924066 0.00879406 0)
(0.0927241 0.00975089 0)
(0.0899482 0.0144833 0)
(0.091207 0.0163808 0)
(0.0995414 0.000148592 0)
(0.0996963 0.000372211 0)
(0.101049 0.000579456 0)
(0.100359 0.000796755 0)
(0.100072 0.000963613 0)
(0.100804 0.00102819 0)
(0.101085 0.00100384 0)
(0.100849 0.000936552 0)
(0.100711 0.000866121 0)
(0.10072 0.000816117 0)
(0.100683 0.000797569 0)
(0.100574 0.000812864 0)
(0.100443 0.000861132 0)
(0.100303 0.000942466 0)
(0.100142 0.00105774 0)
(0.0999559 0.00120938 0)
(0.0997382 0.00140236 0)
(0.0994925 0.00164244 0)
(0.0991933 0.00194095 0)
(0.0988824 0.00230558 0)
(0.0984453 0.00276483 0)
(0.0981111 0.00331434 0)
(0.0974012 0.00404403 0)
(0.097218 0.00485702 0)
(0.0959901 0.0060952 0)
(0.0962521 0.00721356 0)
(0.094471 0.00945173 0)
(0.0951033 0.0108951 0)
(0.0937285 0.0145315 0)
(0.0939292 0.01719 0)
(0.0995425 0.000122075 0)
(0.0996744 0.000315168 0)
(0.100986 0.0004976 0)
(0.100254 0.000699227 0)
(0.0999374 0.000869509 0)
(0.10066 0.000958058 0)
(0.100952 0.000967766 0)
(0.100744 0.00093447 0)
(0.100641 0.000894296 0)
(0.100688 0.000869978 0)
(0.100687 0.000872703 0)
(0.100613 0.000907003 0)
(0.100517 0.000974083 0)
(0.100411 0.00107502 0)
(0.100288 0.00121201 0)
(0.100143 0.00138842 0)
(0.0999719 0.00160948 0)
(0.0997818 0.00188199 0)
(0.0995479 0.00221647 0)
(0.0993206 0.00262369 0)
(0.0989794 0.00312406 0)
(0.0987794 0.00372878 0)
(0.0982133 0.00448557 0)
(0.0982422 0.00537533 0)
(0.0972497 0.00655425 0)
(0.0977972 0.00780299 0)
(0.09643 0.00970816 0)
(0.0974064 0.0113641 0)
(0.0964979 0.0142213 0)
(0.0975476 0.0166231 0)
(0.099542 9.46591e-05 0)
(0.0996579 0.000237837 0)
(0.100948 0.000375421 0)
(0.100193 0.000548231 0)
(0.099861 0.000716943 0)
(0.100579 0.000829574 0)
(0.100879 0.000876935 0)
(0.100688 0.000883344 0)
(0.10061 0.000878337 0)
(0.100686 0.000883428 0)
(0.100716 0.000910615 0)
(0.100674 0.000965682 0)
(0.100611 0.00105179 0)
(0.10054 0.0011711 0)
(0.100455 0.00132671 0)
(0.100353 0.00152281 0)
(0.100232 0.00176482 0)
(0.1001 0.00206036 0)
(0.0999347 0.00241826 0)
(0.0997904 0.00285181 0)
(0.0995497 0.00337185 0)
(0.0994713 0.00400539 0)
(0.0990562 0.00475639 0)
(0.0992544 0.00567653 0)
(0.0984985 0.00676905 0)
(0.0992452 0.00804877 0)
(0.0982667 0.00967138 0)
(0.0993697 0.01138 0)
(0.0991438 0.013529 0)
(0.0998497 0.0161069 0)
(0.0995421 7.51228e-05 0)
(0.099651 0.000184711 0)
(0.100928 0.000289179 0)
(0.10016 0.000435624 0)
(0.0998181 0.000595148 0)
(0.100534 0.000717971 0)
(0.100839 0.000787855 0)
(0.100664 0.000821497 0)
(0.100607 0.000843235 0)
(0.100707 0.000872272 0)
(0.100765 0.000920503 0)
(0.100753 0.000993995 0)
(0.100722 0.00109654 0)
(0.100686 0.00123101 0)
(0.100639 0.00140102 0)
(0.100581 0.00161128 0)
(0.100509 0.00186708 0)
(0.100435 0.00217604 0)
(0.100339 0.00254539 0)
(0.100274 0.00298979 0)
(0.100133 0.00351249 0)
(0.100162 0.00414982 0)
(0.0998946 0.00487459 0)
(0.100222 0.00578496 0)
(0.0996962 0.00677882 0)
(0.10057 0.00803133 0)
(0.0999192 0.00939806 0)
(0.101151 0.0110516 0)
(0.10123 0.0127483 0)
(0.102227 0.014978 0)
(0.0995421 5.84341e-05 0)
(0.099648 0.00013648 0)
(0.100918 0.000208455 0)
(0.100143 0.000327333 0)
(0.0997978 0.000473182 0)
(0.100515 0.000599584 0)
(0.100829 0.000685809 0)
(0.100667 0.000741255 0)
(0.100628 0.00078562 0)
(0.100751 0.000835958 0)
(0.100833 0.000903098 0)
(0.100849 0.000992757 0)
(0.100847 0.00110887 0)
(0.100845 0.00125514 0)
(0.100836 0.00143543 0)
(0.100819 0.0016542 0)
(0.100796 0.00191644 0)
(0.100778 0.00222981 0)
(0.100748 0.0026001 0)
(0.100758 0.00304211 0)
(0.10071 0.00355302 0)
(0.10083 0.00417433 0)
(0.100704 0.00485845 0)
(0.101124 0.00572941 0)
(0.100816 0.00662249 0)
(0.101754 0.0078026 0)
(0.101401 0.00894716 0)
(0.102666 0.0104992 0)
(0.103049 0.0117787 0)
(0.104019 0.0138494 0)
(0.0995422 4.25223e-05 0)
(0.0996476 9.13009e-05 0)
(0.100916 0.000131827 0)
(0.10014 0.00022194 0)
(0.0997951 0.000350847 0)
(0.100517 0.000475778 0)
(0.10084 0.000572874 0)
(0.100692 0.000645792 0)
(0.100671 0.000709499 0)
(0.100813 0.000778119 0)
(0.100918 0.000861194 0)
(0.100958 0.000964207 0)
(0.100984 0.00109112 0)
(0.101013 0.00124566 0)
(0.101038 0.00143145 0)
(0.101062 0.00165288 0)
(0.101085 0.00191499 0)
(0.101119 0.00222492 0)
(0.101151 0.00258697 0)
(0.101227 0.00301514 0)
(0.101266 0.00350306 0)
(0.101463 0.00409272 0)
(0.101464 0.00472774 0)
(0.101951 0.00553711 0)
(0.101836 0.00633369 0)
(0.1028 0.00740956 0)
(0.102697 0.00837041 0)
(0.10397 0.00976955 0)
(0.104532 0.0107612 0)
(0.10559 0.0125358 0)
(0.0995424 2.62201e-05 0)
(0.0996493 4.61971e-05 0)
(0.10092 5.54577e-05 0)
(0.100146 0.000114801 0)
(0.0998066 0.000223144 0)
(0.100537 0.000342902 0)
(0.100872 0.000447752 0)
(0.100738 0.00053549 0)
(0.100732 0.000616057 0)
(0.100891 0.000700537 0)
(0.101016 0.000797413 0)
(0.101078 0.000911387 0)
(0.101129 0.00104589 0)
(0.101185 0.00120462 0)
(0.101243 0.00139136 0)
(0.101303 0.00161046 0)
(0.101368 0.00186655 0)
(0.10145 0.00216593 0)
(0.101538 0.00251178 0)
(0.101674 0.00291705 0)
(0.101789 0.00337339 0)
(0.102049 0.00392056 0)
(0.102163 0.0044998 0)
(0.102695 0.00523518 0)
(0.102751 0.00593748 0)
(0.10371 0.0068964 0)
(0.103818 0.00769781 0)
(0.105065 0.00893402 0)
(0.105767 0.0096858 0)
(0.10685 0.0112193 0)
(0.0995426 9.13283e-06 0)
(0.0996531 -1.4953e-06 0)
(0.100929 -2.49996e-05 0)
(0.100162 1.97159e-06 0)
(0.0998322 8.77215e-05 0)
(0.100575 0.000200094 0)
(0.100923 0.00031071 0)
(0.100803 0.000411508 0)
(0.10081 0.000507539 0)
(0.100984 0.000606526 0)
(0.101125 0.000715061 0)
(0.101205 0.000837135 0)
(0.101277 0.000976025 0)
(0.101358 0.0011354 0)
(0.101444 0.00131897 0)
(0.101537 0.00153095 0)
(0.10164 0.0017754 0)
(0.101764 0.00205793 0)
(0.101902 0.00238118 0)
(0.102089 0.00275656 0)
(0.102271 0.00317506 0)
(0.102583 0.00367206 0)
(0.102794 0.00419185 0)
(0.103354 0.00484536 0)
(0.103555 0.00545887 0)
(0.104492 0.00629326 0)
(0.104774 0.00696227 0)
(0.105978 0.00802475 0)
(0.106772 0.00860047 0)
(0.107882 0.00988486 0)
(0.0995428 -1.09734e-05 0)
(0.0996584 -5.64359e-05 0)
(0.100944 -0.000115293 0)
(0.100191 -0.000123875 0)
(0.0998746 -6.41187e-05 0)
(0.100632 3.90094e-05 0)
(0.100994 0.000156306 0)
(0.100886 0.000272104 0)
(0.100905 0.000384693 0)
(0.10109 0.000498055 0)
(0.101243 0.000616906 0)
(0.101338 0.000744817 0)
(0.101427 0.000885227 0)
(0.101528 0.00104177 0)
(0.101638 0.00121815 0)
(0.101759 0.00141848 0)
(0.101895 0.00164651 0)
(0.102056 0.00190719 0)
(0.102237 0.00220265 0)
(0.102467 0.00254264 0)
(0.102706 0.00291842 0)
(0.10306 0.00336034 0)
(0.103351 0.0038186 0)
(0.10393 0.00438751 0)
(0.10425 0.00491694 0)
(0.105155 0.00562701 0)
(0.105578 0.00618401 0)
(0.106728 0.00707511 0)
(0.107585 0.00751741 0)
(0.108702 0.00857432 0)
(0.0995431 -3.44507e-05 0)
(0.0996679 -0.000116706 0)
(0.100969 -0.000210952 0)
(0.100234 -0.000255115 0)
(0.0999362 -0.000220482 0)
(0.100712 -0.000123991 0)
(0.101091 1.94529e-06 0)
(0.100994 0.000132637 0)
(0.101019 0.000259379 0)
(0.101209 0.000383824 0)
(0.101369 0.000509708 0)
(0.101473 0.000640094 0)
(0.101574 0.000778415 0)
(0.101691 0.000928302 0)
(0.101821 0.00109352 0)
(0.101965 0.001278 0)
(0.102129 0.00148526 0)
(0.10232 0.00171982 0)
(0.102538 0.00198332 0)
(0.102804 0.00228385 0)
(0.10309 0.00261354 0)
(0.103478 0.00299748 0)
(0.103835 0.0033932 0)
(0.104423 0.00387758 0)
(0.10484 0.00432711 0)
(0.10571 0.00491801 0)
(0.106244 0.00537834 0)
(0.107337 0.00610759 0)
(0.108235 0.00644925 0)
(0.109345 0.00729806 0)
(0.0995438 -6.96344e-05 0)
(0.099687 -0.000210123 0)
(0.101015 -0.000354747 0)
(0.100307 -0.000443148 0)
(0.100033 -0.000433901 0)
(0.100826 -0.000336737 0)
(0.101215 -0.000192933 0)
(0.10112 -3.84544e-05 0)
(0.101144 0.000111725 0)
(0.101335 0.000255393 0)
(0.101497 0.000392006 0)
(0.101606 0.00052471 0)
(0.101715 0.000658737 0)
(0.101843 0.000798829 0)
(0.101988 0.000949347 0)
(0.102151 0.00111432 0)
(0.102337 0.00129712 0)
(0.102554 0.00150192 0)
(0.102801 0.00173008 0)
(0.103097 0.00198815 0)
(0.103421 0.00226943 0)
(0.103835 0.00259404 0)
(0.104244 0.00292708 0)
(0.104838 0.00332902 0)
(0.10533 0.00370207 0)
(0.106165 0.00418182 0)
(0.106784 0.00455607 0)
(0.107823 0.00513813 0)
(0.108745 0.0054001 0)
(0.109839 0.00606612 0)
(0.0995429 -0.000102232 0)
(0.099712 -0.000279104 0)
(0.101081 -0.000452495 0)
(0.100417 -0.000571149 0)
(0.10018 -0.00058244 0)
(0.100997 -0.000487207 0)
(0.101392 -0.00033165 0)
(0.101292 -0.000160131 0)
(0.101308 4.63879e-06 0)
(0.101487 0.000153596 0)
(0.101637 0.000287136 0)
(0.101739 0.000412362 0)
(0.101848 0.000535064 0)
(0.101982 0.000659923 0)
(0.102136 0.000791157 0)
(0.102313 0.000932693 0)
(0.102517 0.00108763 0)
(0.102753 0.00125954 0)
(0.103024 0.0014496 0)
(0.103343 0.00166296 0)
(0.103698 0.00189423 0)
(0.104131 0.00215891 0)
(0.104581 0.00242967 0)
(0.105176 0.00275209 0)
(0.105727 0.00305193 0)
(0.106529 0.003429 0)
(0.107212 0.00372463 0)
(0.108201 0.00417545 0)
(0.109137 0.00437156 0)
(0.11021 0.00487966 0)
(0.0995443 -0.000206633 0)
(0.0997716 -0.000510437 0)
(0.101203 -0.000765735 0)
(0.100593 -0.00093618 0)
(0.100384 -0.000943749 0)
(0.101207 -0.000797192 0)
(0.101592 -0.000577695 0)
(0.101472 -0.00034907 0)
(0.101462 -0.000143907 0)
(0.101618 2.69494e-05 0)
(0.101756 0.000170496 0)
(0.101853 0.000293857 0)
(0.101962 0.000405505 0)
(0.102099 0.000513061 0)
(0.102261 0.000622144 0)
(0.102448 0.000737178 0)
(0.102664 0.000861423 0)
(0.102916 0.000997896 0)
(0.103205 0.0011477 0)
(0.103541 0.00131482 0)
(0.103919 0.00149521 0)
(0.104366 0.00170002 0)
(0.104847 0.00190926 0)
(0.105441 0.00215496 0)
(0.106035 0.00238477 0)
(0.10681 0.0026668 0)
(0.10754 0.00289029 0)
(0.108486 0.00322281 0)
(0.109429 0.00336309 0)
(0.11048 0.00373445 0)
(0.0995406 -0.000241231 0)
(0.0999192 -0.00055193 0)
(0.101476 -0.000822072 0)
(0.100969 -0.00100034 0)
(0.100817 -0.000995273 0)
(0.101628 -0.000832854 0)
(0.101956 -0.000603102 0)
(0.101768 -0.000372057 0)
(0.101693 -0.000174508 0)
(0.101799 -1.90794e-05 0)
(0.101899 0.00010199 0)
(0.101968 0.000200111 0)
(0.102061 0.000286393 0)
(0.102193 0.000367658 0)
(0.102355 0.000448679 0)
(0.102547 0.000533096 0)
(0.102773 0.000623555 0)
(0.103035 0.000722277 0)
(0.103337 0.000830098 0)
(0.103686 0.000949713 0)
(0.10408 0.00107861 0)
(0.104538 0.00122361 0)
(0.105041 0.00137254 0)
(0.105634 0.00154352 0)
(0.106257 0.00170755 0)
(0.107012 0.00189857 0)
(0.107773 0.00205794 0)
(0.108687 0.00228034 0)
(0.109632 0.00237168 0)
(0.110664 0.0026212 0)
(0.0995385 -0.000729166 0)
(0.100046 -0.00121172 0)
(0.10165 -0.00156616 0)
(0.101117 -0.00175346 0)
(0.100883 -0.0015783 0)
(0.101595 -0.00121564 0)
(0.101842 -0.000842789 0)
(0.101595 -0.000507477 0)
(0.101481 -0.000246718 0)
(0.101559 -7.61679e-05 0)
(0.101646 2.95022e-05 0)
(0.101715 0.000104709 0)
(0.101813 0.000165559 0)
(0.10195 0.000218866 0)
(0.102119 0.000269591 0)
(0.10232 0.000321291 0)
(0.102555 0.000376082 0)
(0.102829 0.000435514 0)
(0.103145 0.000500184 0)
(0.103507 0.000571616 0)
(0.103918 0.000648458 0)
(0.10439 0.000734183 0)
(0.104911 0.000822768 0)
(0.105516 0.00092179 0)
(0.106155 0.00102101 0)
(0.106925 0.00112625 0)
(0.107675 0.0012271 0)
(0.108637 0.00134272 0)
(0.109498 0.00140239 0)
(0.110636 0.00152379 0)
(0.0984966 -0.000606359 0)
(0.0984902 -0.00101422 0)
(0.0983758 -0.00134885 0)
(0.095684 -0.00145741 0)
(0.0936648 -0.00124126 0)
(0.0929825 -0.000904614 0)
(0.0922332 -0.000594729 0)
(0.0914267 -0.000342179 0)
(0.091034 -0.000166864 0)
(0.0909665 -6.66303e-05 0)
(0.0909785 -1.09575e-05 0)
(0.0910127 2.48896e-05 0)
(0.0910927 5.01368e-05 0)
(0.0912195 6.9527e-05 0)
(0.0913823 8.6522e-05 0)
(0.0915778 0.000103238 0)
(0.0918078 0.000120708 0)
(0.0920754 0.000139544 0)
(0.0923831 0.00015996 0)
(0.092736 0.000182427 0)
(0.0931359 0.000206518 0)
(0.0935911 0.000233234 0)
(0.0940973 0.00026069 0)
(0.0946753 0.00029086 0)
(0.0952947 0.000321565 0)
(0.0960222 0.000352068 0)
(0.0967424 0.000384417 0)
(0.0976454 0.000413566 0)
(0.0984485 0.000436233 0)
(0.0995133 0.000455387 0)
(0.0493225 0.0176985 0)
(0.0700219 0.0266701 0)
(0.0722102 0.0262596 0)
(0.0838485 0.0442654 1.42787e-21)
(0.0772021 0.0164424 1.21783e-21)
(0.11015 0.0659171 0)
(0.0648461 0.0204272 5.89683e-22)
(0.150171 0.0482839 6.11624e-22)
(0.0741494 0.0501469 5.79221e-22)
(0.158727 0.0475281 0)
(0.0734625 0.0248385 0)
(0.0884994 0.0339685 0)
(0.0841759 0.0348316 0)
(0.101382 0.0422751 0)
(0.0963401 0.0477271 0)
(0.102725 0.0450134 4.2192e-22)
(0.131162 0.0511132 2.67014e-22)
(0.113483 0.0618545 1.61969e-22)
(0.124975 0.0557756 -3.07074e-22)
(0.169439 0.0370828 -4.51732e-22)
(0.0833546 0.0226465 0)
(0.0872276 0.0290212 0)
(0.0965821 0.0258403 0)
(0.0935587 0.0391398 0)
(0.108232 0.0311155 0)
(0.109739 0.0375097 -4.21923e-22)
(0.118678 0.0422174 -2.67014e-22)
(0.124447 0.0378069 -1.61967e-22)
(0.149007 0.0461976 1.31378e-22)
(0.151492 0.00901635 4.51732e-22)
(0.0883423 0.0232316 -6.86062e-22)
(0.0959665 0.0262438 0)
(0.0969264 0.0315728 -5.88403e-22)
(0.103701 0.031764 -5.32791e-22)
(0.109488 0.0377982 -4.52555e-22)
(0.112381 0.0392096 0)
(0.123391 0.0371864 0)
(0.127024 0.0379186 -1.08767e-22)
(0.143707 0.0467345 4.81058e-23)
(0.145198 0.0247177 2.63866e-22)
(0.0946484 0.0207466 6.86066e-22)
(0.0967102 0.0256174 0)
(0.102299 0.0241892 5.88407e-22)
(0.104894 0.0311731 5.32795e-22)
(0.110869 0.0286047 4.52558e-22)
(0.11658 0.028685 0)
(0.124462 0.0338939 0)
(0.129065 0.0267383 1.08769e-22)
(0.139764 0.026319 -4.81068e-23)
(0.148968 0.0121758 -2.6387e-22)
(0.0975395 0.0201802 0)
(0.101355 0.0221028 -5.66971e-22)
(0.104667 0.0252195 0)
(0.108457 0.0260941 -4.69761e-22)
(0.114621 0.0279999 0)
(0.117585 0.0296965 0)
(0.124831 0.0274229 0)
(0.130761 0.026724 1.28935e-22)
(0.137982 0.0274229 0)
(0.140195 0.0155393 0)
(0.101172 0.0181273 5.60906e-22)
(0.103269 0.0209155 1.10267e-21)
(0.106991 0.0212697 4.9355e-22)
(0.110728 0.0235572 4.69763e-22)
(0.114547 0.0237143 0)
(0.119847 0.0223476 -3.17935e-22)
(0.125322 0.0240304 0)
(0.129373 0.0193344 -1.28936e-22)
(0.135653 0.0169995 0)
(0.14048 0.00966767 0)
(0.103398 0.0168889 -5.60908e-22)
(0.105738 0.0183357 -5.35694e-22)
(0.109017 0.0197516 -4.93551e-22)
(0.112253 0.0205777 0)
(0.116597 0.0208848 0)
(0.120156 0.0214383 3.17936e-22)
(0.1251 0.0198381 0)
(0.129248 0.0179572 0)
(0.133413 0.016055 0)
(0.13533 0.0100986 0)
(0.105498 0.0151158 0)
(0.107431 0.0165439 -4.86264e-22)
(0.110302 0.0172137 0)
(0.113611 0.0177801 -4.10151e-22)
(0.116904 0.018108 0)
(0.120747 0.0171316 0)
(0.124655 0.0165855 -2.48675e-22)
(0.127825 0.0137389 -1.85518e-22)
(0.131412 0.011165 0)
(0.133749 0.00658938 -7.10841e-23)
(0.107068 0.013585 0)
(0.10887 0.0145327 4.86265e-22)
(0.111497 0.0151656 0)
(0.114445 0.0155406 4.10152e-22)
(0.117648 0.015526 0)
(0.120709 0.0151351 0)
(0.124014 0.0138538 2.48675e-22)
(0.12686 0.0119156 1.85518e-22)
(0.129605 0.00981222 0)
(0.130883 0.00624438 7.10844e-23)
(0.108343 0.0119831 2.34255e-22)
(0.109987 0.0127153 0)
(0.112293 0.0131483 0)
(0.11508 0.0132982 1.94012e-22)
(0.117815 0.0132247 0)
(0.120554 0.0124342 0)
(0.123309 0.0113938 0)
(0.12565 0.00947583 1.07647e-22)
(0.127919 0.00735307 0)
(0.129186 0.00436902 0)
(0.109336 0.0104649 -7.13157e-24)
(0.110858 0.0109799 0)
(0.112948 0.0113055 2.06252e-22)
(0.11546 0.0113881 -3.66766e-24)
(0.117931 0.0111444 0)
(0.120268 0.0104999 0)
(0.122585 0.00944329 1.34486e-22)
(0.124628 0.00788005 -1.07647e-22)
(0.126492 0.00612888 9.40164e-23)
(0.12741 0.00376198 7.59375e-23)
(0.110103 0.0089967 -5.80109e-24)
(0.111532 0.0093591 0)
(0.113414 0.00959965 -4.18075e-24)
(0.115688 0.00958312 -2.66289e-24)
(0.11786 0.00929076 1.71851e-22)
(0.119909 0.00861532 -1.55255e-22)
(0.121898 0.00767541 3.15647e-24)
(0.123652 0.00631641 1.19136e-22)
(0.125225 0.00474654 7.4092e-24)
(0.126063 0.00277918 9.18045e-24)
(0.110687 0.00760224 -2.21323e-22)
(0.112044 0.00784904 0)
(0.113759 0.00802211 -2.02071e-22)
(0.115793 0.00795754 -1.87682e-22)
(0.117729 0.00763497 -1.71851e-22)
(0.119539 0.00703624 3.1158e-22)
(0.121264 0.00620739 -1.37643e-22)
(0.122813 0.0050767 -1.19136e-22)
(0.124158 0.00377892 -1.01426e-22)
(0.124887 0.00219717 -8.51183e-23)
(0.111122 0.00627946 0)
(0.112424 0.00644066 0)
(0.113997 0.00655719 0)
(0.115818 0.00645468 0)
(0.11755 0.00614092 0)
(0.119174 0.00560507 -1.56325e-22)
(0.120703 0.00489409 0)
(0.122083 0.00395964 0)
(0.123261 0.00287452 0)
(0.12394 0.00160127 0)
(0.111439 0.00502446 0)
(0.112696 0.00512235 0)
(0.11415 0.00518983 0)
(0.115789 0.0050723 0)
(0.117362 0.00478591 0)
(0.11884 0.00433486 -7.92878e-23)
(0.12022 0.00374587 0)
(0.121475 0.00299626 0)
(0.122529 0.00212662 0)
(0.123174 0.00112996 0)
(0.11166 0.00382577 0)
(0.112879 0.00387782 0)
(0.114238 0.00390494 9.65268e-23)
(0.115731 0.00378376 0)
(0.117183 0.00353123 8.58451e-23)
(0.118549 0.00316574 7.92878e-23)
(0.119822 0.00269098 0)
(0.120976 0.00211317 6.67261e-23)
(0.121948 0.00143595 0)
(0.122565 0.000685338 0)
(0.111801 0.00267037 0)
(0.11298 0.00268985 0)
(0.114255 0.00268896 -9.65269e-23)
(0.115621 0.00258197 0)
(0.116985 0.00237142 -8.58452e-23)
(0.118251 0.0021012 0)
(0.119461 0.00174305 0)
(0.120504 0.0013231 -6.67262e-23)
(0.121442 0.000834972 0)
(0.121986 0.000303803 0)
(0.111621 0.00154242 -2.58118e-23)
(0.112657 0.00153061 -2.50018e-23)
(0.113773 0.00149415 -2.40339e-23)
(0.114943 0.00139195 0)
(0.116174 0.00121828 -2.16039e-23)
(0.117238 0.00102403 0)
(0.118365 0.00077052 -1.87203e-23)
(0.119104 0.00050911 0)
(0.120027 0.000172341 -1.55883e-23)
(0.12018 -0.000130332 -1.4044e-23)
(0.100391 0.000442975 2.58091e-23)
(0.101233 0.000401525 2.4999e-23)
(0.102057 0.000338282 2.4031e-23)
(0.102829 0.000246056 0)
(0.103535 0.000134291 2.16011e-23)
(0.10398 2.47941e-05 0)
(0.104358 -9.01384e-05 1.87176e-23)
(0.104309 -0.000193125 0)
(0.104291 -0.000338129 1.55857e-23)
(0.103522 -0.000417805 1.40415e-23)
(-0.0102136 -0.00549747 0)
(-0.0323802 0.00310531 0)
(-0.0495239 0.000380201 0)
(-0.0468179 -0.00273521 0)
(-0.0289405 -0.00642605 0)
(-0.00730591 -0.00677507 0)
(0.0137693 -0.00594076 0)
(0.0306788 -0.00460568 0)
(0.0438412 -0.00334248 0)
(0.0534565 -0.00233382 0)
(0.0603628 -0.00160385 0)
(0.065303 -0.00110641 0)
(0.0688664 -0.00077774 0)
(0.0714815 -0.000561741 0)
(0.0734418 -0.000417695 0)
(0.0749429 -0.000319075 0)
(0.0761148 -0.000249437 0)
(0.0770447 -0.000198654 0)
(0.0777924 -0.000160503 0)
(0.0784003 -0.00013114 0)
(0.0788988 -0.000108072 0)
(0.0793103 -8.96074e-05 0)
(0.0796519 -7.46318e-05 0)
(0.0799365 -6.24036e-05 0)
(0.0801745 -5.23568e-05 0)
(0.0803741 -4.40339e-05 0)
(0.0805419 -3.70925e-05 0)
(0.0806834 -3.12856e-05 0)
(0.0808027 -2.6407e-05 0)
(0.0809035 -2.23038e-05 0)
(0.0809885 -1.88407e-05 0)
(0.0810605 -1.59335e-05 0)
(0.0811211 -1.35039e-05 0)
(0.0811729 -1.1371e-05 0)
(0.0812159 -9.78941e-06 0)
(0.0812541 -7.93878e-06 0)
(0.0812827 -7.26594e-06 0)
(0.0813143 -5.42699e-06 0)
(0.0813283 -5.35126e-06 0)
(0.0813595 -4.14215e-06 0)
(-0.00139482 0.0354295 0)
(-0.0303304 0.0268087 0)
(-0.0562541 0.0125363 0)
(-0.0514258 -0.0108707 0)
(-0.0292588 -0.0224502 0)
(-0.00357004 -0.0239457 0)
(0.0201091 -0.0211865 0)
(0.0390856 -0.0168887 0)
(0.0538771 -0.012756 0)
(0.0648834 -0.0093494 0)
(0.0729885 -0.00677378 0)
(0.078963 -0.00492002 0)
(0.0834094 -0.00361714 0)
(0.0867672 -0.00270557 0)
(0.0893446 -0.00206218 0)
(0.0913541 -0.00160048 0)
(0.0929432 -0.00126241 0)
(0.0942152 -0.00100955 0)
(0.095244 -0.000816546 0)
(0.0960832 -0.000666578 0)
(0.0967727 -0.000548237 0)
(0.0973427 -0.000453584 0)
(0.097816 -0.000377057 0)
(0.0982105 -0.000314691 0)
(0.0985405 -0.000263517 0)
(0.0988172 -0.000221245 0)
(0.0990499 -0.00018613 0)
(0.0992459 -0.000156844 0)
(0.0994113 -0.000132334 0)
(0.099551 -0.000111764 0)
(0.099669 -9.44841e-05 0)
(0.099769 -7.98716e-05 0)
(0.099853 -6.77645e-05 0)
(0.0999251 -5.69287e-05 0)
(0.0999844 -4.91137e-05 0)
(0.100038 -3.97892e-05 0)
(0.100077 -3.62407e-05 0)
(0.100122 -2.7453e-05 0)
(0.10014 -2.6303e-05 0)
(0.100183 -1.97366e-05 0)
(-0.0186746 0.0158919 0)
(-0.0440082 0.0388563 0)
(-0.0718798 0.0172778 0)
(-0.0584838 -0.0215782 0)
(-0.0280461 -0.0431502 0)
(0.000625219 -0.0428438 0)
(0.0243963 -0.0367387 0)
(0.0427905 -0.028835 0)
(0.0568543 -0.0216231 0)
(0.0671969 -0.0158474 0)
(0.0747627 -0.0115555 0)
(0.0803522 -0.00848556 0)
(0.0845557 -0.00631898 0)
(0.0877781 -0.00478561 0)
(0.0902907 -0.00368695 0)
(0.0922774 -0.00288608 0)
(0.0938665 -0.00229111 0)
(0.0951501 -0.00184071 0)
(0.0961953 -0.00149367 0)
(0.0970523 -0.00122203 0)
(0.0977591 -0.00100653 0)
(0.098345 -0.000833607 0)
(0.0988325 -0.000693504 0)
(0.0992396 -0.000579102 0)
(0.0995804 -0.000485069 0)
(0.0998666 -0.000407327 0)
(0.100107 -0.00034273 0)
(0.10031 -0.000288845 0)
(0.100482 -0.000243758 0)
(0.100627 -0.000205922 0)
(0.100749 -0.000174152 0)
(0.100853 -0.000147246 0)
(0.10094 -0.000124948 0)
(0.101015 -0.000104973 0)
(0.101076 -9.05256e-05 0)
(0.101133 -7.34519e-05 0)
(0.101172 -6.67148e-05 0)
(0.101219 -5.07676e-05 0)
(0.101238 -4.83945e-05 0)
(0.101283 -3.58785e-05 0)
(-0.00779718 0.0738645 0)
(-0.0423034 0.0713518 0)
(-0.0756017 0.026048 0)
(-0.0448935 -0.0433893 0)
(-0.0109767 -0.0668965 0)
(0.0202073 -0.0620291 0)
(0.0389622 -0.0513833 0)
(0.0526524 -0.0400435 0)
(0.0635084 -0.0299296 0)
(0.0718116 -0.0218679 0)
(0.0779881 -0.0159423 0)
(0.0826076 -0.0117531 0)
(0.0861412 -0.00881315 0)
(0.0889073 -0.00672874 0)
(0.0911103 -0.00522472 0)
(0.0928859 -0.00411773 0)
(0.0943293 -0.00328685 0)
(0.0955105 -0.00265192 0)
(0.0964825 -0.00215887 0)
(0.0972861 -0.0017705 0)
(0.0979532 -0.00146087 0)
(0.0985089 -0.00121151 0)
(0.0989733 -0.00100895 0)
(0.0993623 -0.000843173 0)
(0.0996889 -0.00070666 0)
(0.0999637 -0.000593653 0)
(0.100195 -0.000499689 0)
(0.100391 -0.000421271 0)
(0.100556 -0.000355631 0)
(0.100696 -0.000300522 0)
(0.100814 -0.000254232 0)
(0.100914 -0.000214992 0)
(0.100999 -0.000182464 0)
(0.101071 -0.000153315 0)
(0.101131 -0.000132197 0)
(0.101185 -0.000107395 0)
(0.101224 -9.73644e-05 0)
(0.101269 -7.42963e-05 0)
(0.101288 -7.06266e-05 0)
(0.101331 -5.19884e-05 0)
(0.00699087 0.0599696 0)
(-0.0372647 0.0747826 0)
(-0.0503898 0.0262524 0)
(-0.0111913 -0.0732334 0)
(0.0247802 -0.0936698 0)
(0.0566887 -0.0771475 0)
(0.0683449 -0.0589434 0)
(0.0715445 -0.0459633 0)
(0.0747321 -0.0351529 0)
(0.0786514 -0.0261036 0)
(0.0823705 -0.0192224 0)
(0.0855358 -0.0142965 0)
(0.0881638 -0.0108204 0)
(0.0903443 -0.00833942 0)
(0.0921569 -0.00653253 0)
(0.0936653 -0.00518821 0)
(0.0949212 -0.004168 0)
(0.0959678 -0.00338031 0)
(0.0968411 -0.00276312 0)
(0.097571 -0.00227336 0)
(0.098182 -0.00188053 0)
(0.0986944 -0.00156263 0)
(0.0991249 -0.00130338 0)
(0.099487 -0.00109057 0)
(0.0997921 -0.000914902 0)
(0.10005 -0.00076921 0)
(0.100267 -0.000647901 0)
(0.100451 -0.000546542 0)
(0.100607 -0.00046161 0)
(0.100739 -0.000390239 0)
(0.10085 -0.000330242 0)
(0.100945 -0.000279342 0)
(0.101025 -0.000237122 0)
(0.101094 -0.000199306 0)
(0.10115 -0.000171844 0)
(0.101202 -0.000139729 0)
(0.101238 -0.000126536 0)
(0.101281 -9.66626e-05 0)
(0.101299 -9.17434e-05 0)
(0.10134 -6.72119e-05 0)
(0.0698472 0.0775034 0)
(-0.0241818 0.119392 0)
(0.0211902 0.00881132 0)
(0.0542902 -0.0967664 0)
(0.0634927 -0.123857 0)
(0.083923 -0.0961643 0)
(0.0975542 -0.0622476 0)
(0.095217 -0.0438436 0)
(0.0899716 -0.0342154 0)
(0.0876787 -0.0267075 0)
(0.0877874 -0.0204698 0)
(0.0889785 -0.0156776 0)
(0.0904909 -0.0121396 0)
(0.0919951 -0.00952641 0)
(0.0933688 -0.00756797 0)
(0.0945778 -0.00607593 0)
(0.095622 -0.00492176 0)
(0.0965148 -0.004017 0)
(0.0972737 -0.00329961 0)
(0.097917 -0.00272507 0)
(0.0984613 -0.0022609 0)
(0.0989217 -0.00188311 0)
(0.0993111 -0.00157363 0)
(0.0996405 -0.00131868 0)
(0.0999192 -0.00110763 0)
(0.100155 -0.000932184 0)
(0.100355 -0.000785826 0)
(0.100525 -0.000663348 0)
(0.100669 -0.000560594 0)
(0.100791 -0.000474154 0)
(0.100894 -0.000401419 0)
(0.100982 -0.000339665 0)
(0.101057 -0.000288405 0)
(0.10112 -0.000242494 0)
(0.101173 -0.000209079 0)
(0.101221 -0.000170107 0)
(0.101255 -0.000153925 0)
(0.101295 -0.000117656 0)
(0.101311 -0.000111559 0)
(0.101349 -8.14863e-05 0)
(-0.0190434 0.0433335 0)
(0.0322258 0.101824 0)
(0.104966 -0.0214505 0)
(0.136918 -0.0991519 0)
(0.107626 -0.119588 0)
(0.0819442 -0.103143 0)
(0.089602 -0.0690747 0)
(0.0968969 -0.0437032 0)
(0.0967677 -0.0316715 0)
(0.0942023 -0.0254163 0)
(0.0925027 -0.0206389 0)
(0.0921906 -0.0165248 0)
(0.0927469 -0.0131291 0)
(0.0936562 -0.0104594 0)
(0.0946329 -0.00839837 0)
(0.0955587 -0.00680134 0)
(0.0963932 -0.00554959 0)
(0.0971272 -0.00455685 0)
(0.0977644 -0.00376156 0)
(0.0983132 -0.00311902 0)
(0.0987835 -0.00259612 0)
(0.0991854 -0.00216796 0)
(0.0995281 -0.0018155 0)
(0.0998199 -0.00152399 0)
(0.100068 -0.00128189 0)
(0.100279 -0.0010801 0)
(0.100459 -0.000911403 0)
(0.100612 -0.000769983 0)
(0.100742 -0.000651161 0)
(0.100853 -0.000551071 0)
(0.100946 -0.000466759 0)
(0.101026 -0.000395115 0)
(0.101094 -0.000335595 0)
(0.101152 -0.000282267 0)
(0.1012 -0.000243385 0)
(0.101243 -0.000198112 0)
(0.101275 -0.000179181 0)
(0.101311 -0.000137015 0)
(0.101326 -0.000129827 0)
(0.10136 -9.46341e-05 0)
(0.149399 0.0516172 0)
(0.136846 0.046619 0)
(0.191938 -0.0502247 0)
(0.193455 -0.0965769 0)
(0.141599 -0.0824562 0)
(0.0820427 -0.0728027 0)
(0.0649084 -0.0636598 0)
(0.0720965 -0.0464669 0)
(0.083877 -0.0312712 0)
(0.0913087 -0.0225076 0)
(0.0940447 -0.0180011 0)
(0.0947609 -0.0151269 0)
(0.0950848 -0.0127538 0)
(0.0954988 -0.0106502 0)
(0.0960428 -0.00882681 0)
(0.0966478 -0.00729423 0)
(0.0972491 -0.00603001 0)
(0.0978099 -0.00499533 0)
(0.0983148 -0.00414967 0)
(0.0987607 -0.0034572 0)
(0.0991498 -0.00288826 0)
(0.0994868 -0.00241903 0)
(0.0997773 -0.00203058 0)
(0.100027 -0.00170786 0)
(0.100241 -0.00143886 0)
(0.100423 -0.00121399 0)
(0.10058 -0.00102553 0)
(0.100713 -0.000867214 0)
(0.100827 -0.000733962 0)
(0.100924 -0.000621553 0)
(0.101007 -0.00052675 0)
(0.101078 -0.000446108 0)
(0.101137 -0.000379049 0)
(0.101189 -0.00031893 0)
(0.101231 -0.000275039 0)
(0.10127 -0.000223973 0)
(0.101298 -0.000202514 0)
(0.10133 -0.000154901 0)
(0.101343 -0.000146697 0)
(0.101374 -0.000106773 0)
(0.170794 0.0640561 0)
(0.173005 0.056912 0)
(0.206261 -0.0403255 0)
(0.156419 -0.0673461 0)
(0.118057 -0.0511658 0)
(0.109683 -0.0513736 0)
(0.0955986 -0.0596373 0)
(0.0842485 -0.0568003 0)
(0.0840129 -0.0448909 0)
(0.0880698 -0.0325092 0)
(0.0916342 -0.0235643 0)
(0.0939543 -0.0178155 0)