/*--------------------------------*- C++ -*----------------------------------*\
| =========                 |                                                 |
| \\      /  F ield         | OpenFOAM: The Open Source CFD Toolbox           |
|  \\    /   O peration     | Version:  2112                                  |
|   \\  /    A nd           | Website:  www.openfoam.com                      |
|    \\/     M anipulation  |                                                 |
\*---------------------------------------------------------------------------*/
FoamFile
{
    version     2.0;
    format      ascii;
    arch        "LSB;label=32;scalar=64";
    class       volScalarField;
    location    "0.2";
    object      nut;
}
// * * * * * * * * * * * * * * * * * * * * * * * * * * * * * * * * * * * * * //

dimensions      [0 2 -1 0 0 0 0];

internalField   nonuniform List<scalar> 
1880
(
3.52333e-11
4.68904e-12
3.18281e-13
1.76847e-14
1.10479e-13
2.40819e-14
3.72039e-14
4.20187e-14
7.80235e-15
4.00587e-15
5.21582e-15
3.55899e-13
1.06291e-13
1.45789e-13
2.77914e-13
9.0029e-13
8.24174e-13
7.50113e-13
2.58874e-13
3.69759e-13
7.80329e-13
6.31296e-13
8.47181e-12
2.1811e-12
6.52941e-11
4.03843e-12
1.99057e-10
1.41658e-10
9.45885e-11
1.6212e-08
4.95946e-09
5.62344e-09
1.49724e-09
2.22942e-10
1.23567e-11
1.13332e-11
2.43049e-11
2.9903e-11
3.3774e-12
9.71046e-13
1.13863e-11
3.52111e-11
1.75063e-11
1.54271e-11
3.66276e-11
8.95163e-12
3.06692e-11
1.83204e-11
4.79756e-12
6.23468e-13
4.85599e-12
1.29556e-10
9.00947e-11
3.74215e-10
8.24732e-10
2.099e-09
4.50375e-09
1.65653e-08
1.84214e-08
1.92437e-08
1.61562e-09
2.55206e-09
8.36873e-10
5.71524e-10
6.87794e-10
8.29512e-10
1.47003e-09
7.06472e-09
2.26839e-09
1.40335e-09
2.01316e-10
4.54447e-09
3.9145e-11
9.33816e-10
6.37025e-12
2.12562e-10
6.21672e-11
3.46982e-10
2.04945e-09
1.06427e-10
3.77437e-09
6.76543e-09
2.27647e-09
1.58554e-08
8.84678e-09
1.46321e-08
2.73922e-08
1.93084e-08
3.71796e-08
6.59098e-08
1.90644e-12
6.48074e-11
7.50007e-10
5.48081e-10
3.0336e-10
1.19528e-09
1.54548e-09
7.04044e-09
4.27363e-11
1.48078e-09
2.39605e-09
1.2862e-08
4.08147e-10
2.12768e-08
3.26078e-09
1.73168e-08
9.83983e-10
4.47716e-09
4.83875e-09
8.64317e-09
8.96055e-09
8.21891e-09
9.71692e-09
1.01283e-08
1.39219e-08
2.01023e-08
2.43848e-08
2.70342e-08
3.25253e-08
3.90268e-08
1.4311e-11
8.8242e-10
2.67342e-10
2.71645e-10
1.09778e-09
5.33374e-10
1.07404e-09
4.27868e-09
8.71641e-10
4.29874e-10
6.92964e-10
8.35126e-09
1.52475e-09
1.17732e-08
7.93806e-10
2.19921e-08
8.37769e-09
6.24893e-09
1.17298e-08
9.49289e-09
1.21568e-08
1.02224e-08
8.23482e-09
1.39007e-08
1.04434e-08
1.5696e-08
1.78451e-08
2.06576e-08
2.50883e-08
3.4827e-08
1.73199e-12
7.2516e-11
6.2515e-10
9.95224e-11
2.66174e-10
1.40501e-09
3.14879e-09
2.88569e-09
6.99625e-11
1.83164e-09
2.2347e-09
8.56219e-09
3.5502e-10
5.06919e-09
2.83756e-10
6.59269e-09
4.60037e-09
5.75385e-09
4.56935e-09
6.88628e-09
6.36162e-09
6.49622e-09
7.75175e-09
1.01244e-08
1.02813e-08
1.51804e-08
1.61035e-08
2.04455e-08
2.62478e-08
2.63234e-08
6.26574e-13
3.55076e-10
4.79549e-10
2.74437e-10
1.82279e-09
1.00472e-09
2.44966e-09
3.639e-09
1.22151e-09
1.4563e-09
1.65094e-09
3.10597e-09
2.37924e-09
2.16625e-09
2.06166e-09
2.09519e-09
8.74864e-09
7.01449e-09
8.10199e-09
7.21247e-09
7.10303e-09
7.66056e-09
5.79484e-09
1.06195e-08
9.81683e-09
1.24932e-08
1.62421e-08
1.62861e-08
2.08867e-08
2.4433e-08
2.12752e-12
3.13966e-10
8.39007e-10
3.48129e-10
1.54192e-09
1.53299e-09
3.40142e-09
3.04007e-09
1.02424e-09
2.45346e-09
2.52131e-09
2.61359e-09
1.77241e-09
3.07715e-09
1.78887e-09
1.96268e-09
5.3323e-09
5.16961e-09
4.5003e-09
4.8391e-09
5.32764e-09
6.04751e-09
6.76344e-09
9.41949e-09
9.7061e-09
1.32701e-08
1.52937e-08
1.63733e-08
2.06003e-08
2.04608e-08
4.69213e-12
4.6007e-10
1.05624e-09
5.64608e-10
2.17936e-09
1.67613e-09
3.30489e-09
3.75677e-09
1.6911e-09
2.62e-09
2.56028e-09
3.31234e-09
2.39627e-09
3.34173e-09
2.45135e-09
2.49595e-09
5.58496e-09
4.83445e-09
4.42747e-09
4.90425e-09
4.60732e-09
6.7928e-09
6.50368e-09
8.9679e-09
9.55326e-09
1.09444e-08
1.42141e-08
1.45565e-08
1.74032e-08
1.96392e-08
1.34242e-11
6.88647e-10
1.31641e-09
7.95435e-10
2.52614e-09
1.9316e-09
3.47266e-09
3.87403e-09
1.9771e-09
3.02393e-09
2.8963e-09
3.49388e-09
2.46554e-09
3.46568e-09
2.73474e-09
2.78914e-09
4.70316e-09
4.41967e-09
4.2572e-09
4.86729e-09
5.16035e-09
6.31712e-09
6.83899e-09
8.48016e-09
9.60959e-09
1.13033e-08
1.32495e-08
1.35559e-08
1.62834e-08
1.73239e-08
6.20423e-11
9.98404e-10
1.54512e-09
1.0004e-09
2.67104e-09
2.20861e-09
3.71159e-09
3.64503e-09
2.09621e-09
3.4894e-09
3.23481e-09
3.37681e-09
2.5466e-09
3.73352e-09
3.09265e-09
3.12586e-09
4.28642e-09
4.50435e-09
4.27159e-09
5.25318e-09
5.3091e-09
6.6624e-09
6.96886e-09
8.03149e-09
9.20535e-09
1.02815e-08
1.21245e-08
1.29074e-08
1.4473e-08
1.65828e-08
1.92312e-10
1.25811e-09
1.57446e-09
1.1583e-09
2.98436e-09
2.2655e-09
3.50701e-09
3.96851e-09
2.5538e-09
3.45436e-09
3.23056e-09
4.00267e-09
2.94142e-09
3.54841e-09
3.38554e-09
3.39582e-09
4.41715e-09
4.59102e-09
4.62174e-09
5.40975e-09
5.58278e-09
6.40533e-09
7.02422e-09
7.84833e-09
8.9598e-09
9.98842e-09
1.12725e-08
1.21199e-08
1.37617e-08
1.50986e-08
1.14343e-10
1.00202e-09
1.61379e-09
1.18479e-09
2.58404e-09
2.54489e-09
3.77702e-09
3.37027e-09
2.38374e-09
3.90945e-09
3.58065e-09
3.51971e-09
2.8096e-09
3.89401e-09
3.73067e-09
3.60084e-09
4.13247e-09
4.85644e-09
4.92753e-09
5.61661e-09
5.80083e-09
6.42438e-09
7.02555e-09
7.65876e-09
8.54724e-09
9.55049e-09
1.05239e-08
1.1706e-08
1.27881e-08
1.43283e-08
2.26491e-11
1.00888e-09
1.22594e-09
1.23324e-09
3.00407e-09
2.40213e-09
3.3283e-09
3.78161e-09
2.81148e-09
3.79889e-09
3.54094e-09
4.10727e-09
3.21596e-09
3.74743e-09
3.84016e-09
3.95732e-09
4.56321e-09
5.02338e-09
5.09863e-09
5.73827e-09
5.80383e-09
6.32528e-09
6.87766e-09
7.45269e-09
8.20438e-09
9.15736e-09
1.00226e-08
1.10994e-08
1.22446e-08
1.33491e-08
1.06053e-11
2.34036e-10
1.33884e-09
9.95429e-10
1.36402e-09
2.90794e-09
3.78073e-09
2.44839e-09
2.06917e-09
4.28005e-09
3.74802e-09
3.52753e-09
2.97968e-09
3.91759e-09
4.00384e-09
3.79231e-09
4.25684e-09
5.06459e-09
5.34396e-09
5.67575e-09
5.87355e-09
6.15499e-09
6.72547e-09
7.26947e-09
7.84054e-09
8.83032e-09
9.54895e-09
1.06725e-08
1.16295e-08
1.27218e-08
4.00785e-11
1.32976e-09
9.95435e-10
1.26496e-09
2.31192e-09
2.32402e-09
2.57441e-09
3.90701e-09
2.84974e-09
3.67298e-09
3.34991e-09
4.21733e-09
3.32668e-09
3.83348e-09
4.06691e-09
4.18665e-09
4.65157e-09
5.21612e-09
5.21093e-09
5.60171e-09
5.54616e-09
5.89585e-09
6.31153e-09
6.88725e-09
7.47271e-09
8.40762e-09
9.17125e-09
1.01738e-08
1.11696e-08
1.21126e-08
4.98812e-12
3.08236e-12
8.48341e-10
7.39628e-10
3.41222e-10
2.45479e-09
2.242e-09
1.15672e-09
1.25767e-09
4.27772e-09
3.30396e-09
2.86974e-09
2.77659e-09
4.21132e-09
4.37338e-09
3.95726e-09
4.30831e-09
4.87685e-09
5.08026e-09
5.0081e-09
5.05843e-09
5.26366e-09
5.78933e-09
6.42762e-09
7.04756e-09
8.00397e-09
8.79283e-09
9.77278e-09
1.07354e-08
1.16533e-08
1.88294e-09
3.01911e-09
1.60451e-09
1.62658e-09
1.9661e-09
2.45826e-09
2.76914e-09
6.01356e-09
3.65498e-09
3.16522e-09
1.15934e-09
2.15954e-09
8.73577e-10
9.83454e-10
1.29473e-10
9.82154e-11
2.6107e-09
4.82342e-09
6.17206e-09
3.90488e-09
1.23354e-09
6.61258e-11
4.95709e-13
2.91088e-10
7.71444e-10
2.18829e-09
3.2039e-09
5.11633e-09
6.34995e-09
8.19983e-09
5.03719e-09
5.39122e-09
1.31866e-09
1.84246e-10
3.2382e-12
6.25235e-12
7.95004e-12
4.72387e-12
9.93522e-13
2.62033e-11
4.3656e-12
1.36407e-12
2.45306e-14
1.56138e-12
5.81046e-12
3.14466e-11
1.13829e-10
1.40149e-10
1.02099e-10
6.22481e-11
2.82857e-11
1.13108e-11
6.01219e-12
1.89085e-12
1.1529e-12
7.12515e-13
3.07186e-13
1.08937e-13
2.86195e-14
9.29943e-15
3.44854e-11
4.5438e-12
2.91851e-13
1.12086e-14
1.10387e-13
1.15734e-14
1.97159e-14
1.22623e-14
1.50153e-14
3.68129e-14
7.70469e-16
3.25593e-14
1.55255e-15
2.24862e-15
8.60554e-14
4.74719e-13
8.12207e-13
6.63569e-13
3.47759e-13
1.40781e-13
4.10395e-14
1.56867e-14
4.93622e-15
2.37575e-15
1.92301e-15
1.54089e-15
6.07221e-16
9.0023e-16
9.35089e-17
7.83908e-17
1.0733e-08
1.28471e-09
8.29649e-10
3.60005e-09
1.1415e-12
1.69721e-10
5.62335e-11
2.40831e-09
3.96792e-10
4.02917e-09
6.432e-08
6.13888e-08
1.46621e-09
6.02502e-08
1.28751e-07
2.15551e-08
4.34264e-07
8.03616e-08
1.61316e-07
1.06611e-07
1.77168e-08
5.9378e-08
4.24551e-08
8.81189e-09
8.25935e-08
5.35468e-08
4.89144e-07
5.32686e-07
5.49258e-08
4.59504e-08
6.23887e-08
3.5388e-08
3.59098e-08
3.57171e-08
2.80385e-08
4.36334e-08
5.94264e-08
2.91891e-08
4.09144e-08
6.57759e-08
4.09252e-08
3.5692e-08
3.45166e-08
3.90376e-08
3.97064e-08
4.88489e-08
4.64256e-08
1.35445e-08
4.23323e-08
5.73927e-08
4.28352e-08
3.00592e-08
3.48296e-08
3.44231e-08
3.23546e-08
4.28592e-08
4.39105e-08
4.63215e-08
2.92345e-08
4.24851e-08
3.2469e-08
2.79111e-08
3.01203e-08
2.84601e-08
3.23388e-08
3.72857e-08
3.44765e-08
3.15184e-08
3.39088e-08
4.11603e-08
3.08955e-08
2.48643e-08
2.83631e-08
2.84297e-08
2.79936e-08
3.5811e-08
3.36449e-08
3.07521e-08
2.73196e-08
3.33581e-08
2.53571e-08
2.25119e-08
2.52038e-08
2.56313e-08
2.69984e-08
2.95905e-08
2.84899e-08
2.85086e-08
2.8223e-08
2.80501e-08
2.32425e-08
2.08335e-08
2.32995e-08
2.4024e-08
2.38967e-08
2.78467e-08
2.72269e-08
2.45067e-08
2.40972e-08
2.52921e-08
1.99569e-08
1.89654e-08
2.11686e-08
2.22752e-08
2.25178e-08
2.39835e-08
2.39085e-08
2.31629e-08
2.24328e-08
2.15057e-08
1.83896e-08
1.77605e-08
1.95524e-08
2.05793e-08
2.06796e-08
2.21905e-08
2.18755e-08
2.04391e-08
1.99316e-08
1.93041e-08
1.63944e-08
1.64337e-08
1.80443e-08
1.92041e-08
1.93972e-08
1.98906e-08
1.96867e-08
1.88611e-08
1.81311e-08
1.70337e-08
1.52367e-08
1.54672e-08
1.68012e-08
1.77733e-08
1.80843e-08
1.83956e-08
1.80009e-08
1.70806e-08
1.63817e-08
1.5266e-08
1.40598e-08
1.45517e-08
1.57051e-08
1.66054e-08
1.69241e-08
1.69609e-08
1.6522e-08
1.57392e-08
1.49651e-08
1.37568e-08
1.32906e-08
1.38399e-08
1.48254e-08
1.54972e-08
1.5852e-08
1.58554e-08
1.53613e-08
1.45815e-08
1.37664e-08
1.25658e-08
1.26045e-08
1.31658e-08
1.40474e-08
1.45724e-08
1.49241e-08
1.48648e-08
1.44335e-08
1.36618e-08
1.28896e-08
1.15343e-08
9.20131e-09
8.58104e-09
9.78769e-09
8.91098e-09
9.74836e-09
8.22787e-09
8.30544e-09
6.16261e-09
5.59792e-09
3.49366e-09
5.99398e-14
8.68452e-13
2.01368e-12
6.70317e-12
1.27347e-11
2.28361e-11
2.86757e-11
3.53975e-11
3.24857e-11
2.88803e-11
2.2992e-15
2.95898e-15
6.45454e-15
1.10742e-14
1.7976e-14
3.55522e-14
4.33708e-14
6.92315e-14
5.86531e-14
4.42119e-14
2.25003e-08
4.03354e-08
5.6428e-09
9.19867e-09
7.3261e-09
3.6911e-09
1.40515e-09
9.26628e-10
1.3898e-09
3.5017e-09
1.19679e-08
4.2687e-08
1.36936e-07
7.12103e-08
9.81574e-09
1.2205e-09
1.81493e-10
2.94762e-11
4.39588e-12
4.46812e-13
1.35489e-14
2.45453e-16
1.05067e-14
2.14954e-14
2.14215e-14
1.54693e-14
9.31793e-15
4.88731e-15
2.39082e-15
1.15166e-15
5.54086e-16
2.81111e-16
1.45797e-16
8.18876e-17
4.71497e-17
2.82896e-17
1.86495e-17
9.66486e-18
9.54026e-18
4.4887e-18
1.12235e-07
3.32642e-08
8.34077e-08
1.89981e-07
1.8818e-07
7.15043e-09
1.33268e-06
7.5756e-09
1.75569e-08
6.60797e-08
1.15196e-07
1.15839e-07
1.14812e-07
1.04857e-07
9.12688e-08
7.28592e-08
5.20764e-08
3.12056e-08
1.43948e-08
4.92919e-09
1.3124e-09
2.86326e-10
5.11506e-11
6.72167e-12
4.97183e-13
6.06447e-15
3.60426e-15
2.24783e-14
3.31396e-14
2.8815e-14
2.13962e-14
1.32837e-14
8.97896e-15
4.94545e-15
3.74447e-15
1.98199e-15
1.73669e-15
8.70709e-16
8.36078e-16
3.61908e-16
5.73218e-09
8.98308e-08
1.54077e-07
9.33302e-08
2.76102e-09
2.30342e-06
2.28679e-06
5.00768e-07
3.01932e-10
1.36241e-08
6.38782e-08
8.27671e-08
8.17818e-08
7.71915e-08
6.97541e-08
6.11563e-08
5.28947e-08
4.49978e-08
3.71414e-08
2.98858e-08
2.3576e-08
1.77551e-08
1.20487e-08
6.71217e-09
2.85144e-09
8.71237e-10
2.04952e-10
3.79602e-11
5.91551e-12
7.44843e-13
6.54216e-14
5.36851e-15
1.26931e-15
4.26677e-15
8.36267e-15
8.89475e-15
1.35879e-14
9.95706e-15
1.43294e-14
7.45149e-15
5.28285e-07
5.97364e-09
8.04443e-08
5.81842e-08
7.70986e-07
2.95012e-06
2.83405e-06
1.65472e-06
1.43574e-07
1.64997e-09
5.49619e-08
1.0918e-07
1.14342e-07
1.03101e-07
8.58472e-08
6.24057e-08
4.10266e-08
2.92507e-08
2.48124e-08
2.32019e-08
2.1026e-08
1.781e-08
1.45057e-08
1.15431e-08
9.07781e-09
7.00559e-09
5.32074e-09
3.87475e-09
2.67042e-09
1.63606e-09
8.97638e-10
4.0073e-10
1.60941e-10
5.3718e-11
1.61456e-11
4.17235e-12
7.40506e-13
1.22744e-13
4.59343e-16
2.0341e-15
2.21797e-07
1.0237e-07
1.44596e-07
4.79561e-09
1.59212e-06
3.12041e-06
2.87076e-06
2.20405e-06
1.17655e-06
3.68207e-08
8.30655e-09
7.50381e-08
1.14449e-07
1.05112e-07
7.01579e-08
3.92807e-08
3.95348e-08
3.48082e-08
1.77058e-08
1.20418e-08
1.28036e-08
1.39744e-08
1.29045e-08
1.06554e-08
8.43832e-09
6.54939e-09
5.0945e-09
3.95507e-09
3.12669e-09
2.46457e-09
1.99852e-09
1.59461e-09
1.31478e-09
1.05674e-09
8.75354e-10
7.03523e-10
5.80587e-10
4.73308e-10
3.90868e-10
3.38908e-10
8.8856e-09
1.20669e-07
5.60309e-09
2.36662e-09
7.97667e-07
2.44953e-06
2.09257e-06
1.78979e-06
1.50303e-06
2.36498e-07
3.77908e-12
2.83133e-08
8.14492e-08
8.86172e-08
6.76684e-08
8.65171e-10
3.60705e-08
3.19101e-08
3.25211e-09
1.17425e-08
7.56839e-09
7.61074e-09
9.54356e-09
9.63475e-09
8.21019e-09
6.47625e-09
5.02663e-09
3.87735e-09
3.03898e-09
2.37807e-09
1.91878e-09
1.52848e-09
1.27082e-09
1.02737e-09
8.79185e-10
7.20444e-10
6.40606e-10
5.42039e-10
5.06853e-10
4.60147e-10
1.56891e-07
2.40058e-07
9.19904e-08
9.82761e-08
6.69559e-09
2.01264e-06
2.40875e-06
2.2926e-06
2.28783e-06
7.25586e-07
3.07708e-10
2.81613e-08
9.27238e-08
1.0404e-07
8.25714e-08
5.67291e-08
1.32639e-07
8.85934e-08
1.0391e-08
1.43078e-09
2.09428e-11
5.09937e-09
6.98499e-09
7.00225e-09
6.8897e-09
5.99923e-09
4.83436e-09
3.75839e-09
2.94973e-09
2.30169e-09
1.85923e-09
1.47424e-09
1.22639e-09
9.85701e-10
8.43605e-10
6.83658e-10
6.0709e-10
5.05341e-10
4.74246e-10
4.25066e-10
1.32789e-08
6.57464e-08
1.52816e-08
4.33598e-09
4.02639e-09
2.28794e-08
1.50365e-06
2.19825e-06
2.21325e-06
8.77748e-07
2.16074e-08
8.45254e-08
1.01491e-07
5.58622e-08
4.83857e-08
6.86067e-08
3.34957e-08
2.72122e-08
5.94209e-09
1.21252e-09
5.38279e-10
2.84046e-10
2.66649e-10
2.41761e-09
5.57693e-09
5.4055e-09
4.59294e-09
3.72036e-09
2.9621e-09
2.32478e-09
1.86203e-09
1.47613e-09
1.22011e-09
9.82769e-10
8.36737e-10
6.74439e-10
5.92988e-10
4.85894e-10
4.51912e-10
3.998e-10
7.54879e-07
5.7292e-08
1.75364e-07
2.89822e-07
5.7055e-07
3.38005e-07
1.03113e-06
1.74389e-06
1.92444e-06
7.22468e-09
9.67696e-08
7.33651e-08
7.67202e-08
5.12226e-08
6.8003e-09
3.58901e-08
1.24812e-08
7.4732e-10
2.75242e-09
1.66819e-08
3.36495e-08
2.10883e-08
7.00671e-09
1.55852e-09
2.96419e-10
6.26776e-10
2.45943e-09
3.10156e-09
2.85595e-09
2.37263e-09
1.95163e-09
1.5398e-09
1.25307e-09
9.82739e-10
8.19974e-10
6.42011e-10
5.5367e-10
4.37575e-10
3.99723e-10
3.44223e-10
3.98181e-08
2.1964e-08
6.6073e-08
5.70054e-07
9.94957e-07
6.15286e-07
2.08586e-09
1.76106e-07
4.70807e-09
1.20233e-07
1.18992e-07
8.54777e-08
6.9924e-08
6.54897e-08
5.95908e-08
4.14276e-08
3.67497e-08
2.56442e-08
7.62478e-09
3.68206e-09
4.80484e-09
1.06994e-08
1.96547e-08
2.0656e-08
1.23377e-08
5.15799e-09
2.32399e-09
1.58104e-09
1.61443e-09
1.61671e-09
1.48057e-09
1.23131e-09
1.04476e-09
8.51855e-10
7.28692e-10
5.7717e-10
4.94737e-10
3.80668e-10
3.39295e-10
2.81716e-10
6.01817e-08
5.35462e-08
7.55499e-08
5.60859e-08
4.99332e-08
6.4482e-08
3.38002e-08
3.59462e-08
1.11489e-07
1.21142e-07
8.18814e-08
7.23621e-08
6.91148e-08
5.33133e-08
4.14647e-08
7.51008e-09
2.01768e-09
1.14739e-08
1.54935e-07
2.38035e-07
1.94868e-07
1.88636e-08
1.25256e-08
9.36432e-09
8.55151e-09
8.11294e-09
7.25729e-09
5.87357e-09
4.47006e-09
3.30055e-09
2.45326e-09
1.7884e-09
1.34522e-09
9.91505e-10
7.81265e-10
5.78054e-10
4.7118e-10
3.36706e-10
2.83723e-10
2.1316e-10
7.21564e-08
5.7757e-08
6.63391e-08
6.75446e-08
5.0989e-08
4.2876e-08
3.89884e-08
7.34956e-08
9.55549e-08
7.06141e-08
5.92474e-08
3.96043e-08
6.13537e-08
4.77627e-08
2.22452e-08
4.44904e-09
4.53215e-08
5.68884e-08
3.03525e-08
3.30837e-07
1.57014e-07
8.43863e-08
9.37076e-08
1.0911e-07
5.71927e-08
1.34509e-09
4.24296e-10
1.65494e-09
2.17679e-09
2.12072e-09
1.77882e-09
1.37797e-09
1.08504e-09
8.3915e-10
6.84671e-10
5.16199e-10
4.18013e-10
2.83479e-10
2.21239e-10
1.06329e-10
5.32154e-08
4.80825e-08
4.96461e-08
4.43899e-08
3.76104e-08
4.53118e-08
4.88646e-08
6.47931e-08
4.95846e-08
6.22668e-08
8.09675e-08
4.81159e-08
2.18406e-08
2.10675e-08
3.73399e-08
2.10397e-08
2.40617e-07
2.41078e-08
6.15627e-10
9.52157e-10
6.87622e-10
9.64139e-09
2.51253e-08
2.04233e-08
1.03431e-08
6.19036e-09
5.04421e-09
4.45268e-09
3.82083e-09
3.03344e-09
2.33025e-09
1.71368e-09
1.27689e-09
9.31827e-10
7.21466e-10
5.19888e-10
4.05314e-10
2.54548e-10
1.71213e-10
4.42181e-12
4.52274e-08
4.1874e-08
4.13492e-08
4.14724e-08
3.32161e-08
3.66931e-08
4.70343e-08
4.8142e-08
4.71788e-08
1.53456e-08
5.78277e-08
3.14435e-08
2.77375e-08
3.60728e-09
4.39004e-08
3.31761e-08
8.97672e-09
3.28863e-08
3.6647e-08
2.31612e-08
1.87581e-08
2.92508e-08
3.02568e-08
2.44265e-08
1.72812e-08
1.15831e-08
7.93515e-09
5.73799e-09
4.32823e-09
3.27125e-09
2.45118e-09
1.77802e-09
1.30562e-09
9.41917e-10
7.21315e-10
5.1534e-10
3.95775e-10
2.39623e-10
1.35633e-10
4.95081e-16
3.54285e-08
3.45479e-08
3.25764e-08
3.24618e-08
2.99337e-08
3.56007e-08
3.08411e-08
4.00717e-08
4.39896e-08
4.67241e-08
6.56828e-09
3.48298e-08
4.93458e-08
3.61516e-08
6.86824e-11
2.02525e-08
5.93435e-09
2.06749e-08
3.17845e-08
3.01815e-08
3.7714e-07
3.23766e-07
1.83677e-07
5.48655e-08
6.18148e-09
5.24935e-09
6.39417e-09
5.53438e-09
4.31529e-09
3.2122e-09
2.32918e-09
1.6587e-09
1.2036e-09
8.81711e-10
6.87857e-10
5.02547e-10
3.92712e-10
2.44823e-10
1.53451e-10
8.7389e-13
3.21666e-08
3.02449e-08
2.93556e-08
2.97636e-08
2.53239e-08
2.79923e-08
3.15144e-08
3.25182e-08
2.8783e-08
2.89225e-08
3.26719e-08
1.31094e-08
1.91165e-08
1.77138e-08
8.36699e-09
1.15831e-08
3.23184e-08
1.10216e-08
6.3029e-09
3.9945e-10
1.11572e-09
5.5498e-09
1.38472e-08
1.70144e-08
1.5153e-08
1.18359e-08
8.87574e-09
6.61552e-09
4.9412e-09
3.64482e-09
2.67373e-09
1.90596e-09
1.38698e-09
9.92228e-10
7.5979e-10
5.46311e-10
4.27854e-10
2.80504e-10
2.09443e-10
6.511e-11
2.56073e-08
2.42652e-08
2.36399e-08
2.36754e-08
2.62163e-08
2.51293e-08
2.45582e-08
3.12279e-08
3.02883e-08
2.08115e-08
3.20136e-08
2.90414e-08
2.26624e-08
1.10796e-08
2.37875e-08
2.81851e-08
1.40906e-08
1.13917e-08
4.50381e-08
4.47618e-09
5.42385e-09
1.27465e-08
1.49603e-08
1.34146e-08
1.09364e-08
8.81015e-09
7.04857e-09
5.48252e-09
4.1092e-09
2.99295e-09
2.141e-09
1.53994e-09
1.15374e-09
8.82112e-10
7.16069e-10
5.46153e-10
4.47351e-10
3.19219e-10
2.6352e-10
1.90853e-10
2.33984e-08
2.22513e-08
2.11624e-08
2.11979e-08
1.96518e-08
2.17247e-08
2.36693e-08
2.15694e-08
2.4846e-08
2.70275e-08
2.03956e-08
2.03759e-08
2.81785e-08
2.54712e-08
1.43583e-08
1.26699e-08
2.09082e-08
2.28967e-08
1.99898e-08
1.60928e-08
1.35782e-08
1.33956e-08
1.30549e-08
1.20771e-08
1.06558e-08
8.96439e-09
7.27288e-09
5.7168e-09
4.39791e-09
3.28376e-09
2.44073e-09
1.7684e-09
1.33332e-09
9.911e-10
7.93853e-10
6.00196e-10
4.98424e-10
3.72344e-10
3.24365e-10
2.628e-10
1.92366e-08
1.80984e-08
1.74552e-08
1.75542e-08
1.81585e-08
1.81926e-08
1.84699e-08
2.08757e-08
2.00056e-08
1.92114e-08
2.27592e-08
2.19868e-08
1.75413e-08
1.94034e-08
2.18643e-08
2.08824e-08
1.69971e-08
1.16397e-08
9.59441e-09
1.35002e-08
1.62752e-08
1.61636e-08
1.43519e-08
1.19314e-08
9.58861e-09
7.56273e-09
5.9068e-09
4.54783e-09
3.45336e-09
2.58377e-09
1.95023e-09
1.4865e-09
1.18952e-09
9.47084e-10
7.93653e-10
6.27119e-10
5.36987e-10
4.22505e-10
3.81473e-10
3.25148e-10
1.72676e-08
1.63871e-08
1.53897e-08
1.50923e-08
1.47167e-08
1.54298e-08
1.59123e-08
1.57216e-08
1.71741e-08
1.7913e-08
1.65467e-08
1.70799e-08
1.89242e-08
1.84471e-08
1.56123e-08
1.39171e-08
1.59873e-08
1.70355e-08
1.55291e-08
1.34097e-08
1.17158e-08
1.03649e-08
9.44935e-09
8.61065e-09
7.67872e-09
6.5968e-09
5.49872e-09
4.4248e-09
3.49634e-09
2.68236e-09
2.08544e-09
1.59369e-09
1.28323e-09
1.00882e-09
8.46883e-10
6.72597e-10
5.84867e-10
4.72731e-10
4.3588e-10
3.80708e-10
1.46565e-08
1.38006e-08
1.29039e-08
1.26972e-08
1.25966e-08
1.28505e-08
1.32514e-08
1.38679e-08
1.40725e-08
1.46244e-08
1.5869e-08
1.61911e-08
1.53261e-08
1.59921e-08
1.69474e-08
1.6246e-08
1.47753e-08
1.32778e-08
1.2041e-08
1.1704e-08
1.19885e-08
1.16756e-08
1.06729e-08
9.2562e-09
7.74691e-09
6.29412e-09
5.02768e-09
3.94577e-09
3.09105e-09
2.40566e-09
1.9216e-09
1.5303e-09
1.27121e-09
1.02745e-09
8.75859e-10
7.09107e-10
6.25733e-10
5.17522e-10
4.83798e-10
4.28776e-10
1.30338e-08
1.21859e-08
1.12363e-08
1.06977e-08
1.03517e-08
1.05767e-08
1.09106e-08
1.11359e-08
1.19401e-08
1.27726e-08
1.31449e-08
1.37231e-08
1.44652e-08
1.46375e-08
1.44687e-08
1.40139e-08
1.3722e-08
1.38505e-08
1.34478e-08
1.22612e-08
1.08293e-08
9.47239e-09
8.24081e-09
7.12723e-09
6.14686e-09
5.19697e-09
4.35171e-09
3.55742e-09
2.91071e-09
2.33382e-09
1.92045e-09
1.54393e-09
1.29785e-09
1.04985e-09
9.0428e-10
7.36337e-10
6.60073e-10
5.50812e-10
5.2414e-10
4.65398e-10
1.15133e-08
1.05819e-08
9.59648e-09
9.05962e-09
8.72438e-09
8.80965e-09
9.22094e-09
9.67958e-09
1.0215e-08
1.09189e-08
1.18906e-08
1.2617e-08
1.28406e-08
1.30736e-08
1.35637e-08
1.37134e-08
1.32432e-08
1.2431e-08
1.15947e-08
1.07291e-08
9.85608e-09
9.02098e-09
8.12568e-09
7.09459e-09
6.04795e-09
5.01271e-09
4.10411e-09
3.29078e-09
2.65489e-09
2.10624e-09
1.72027e-09
1.35519e-09
1.13303e-09
8.78502e-10
7.60051e-10
5.80521e-10
5.39229e-10
4.15241e-10
4.28925e-10
3.54419e-10
1.04801e-08
9.50992e-09
8.51641e-09
7.86916e-09
7.43111e-09
7.40452e-09
7.63877e-09
7.72858e-09
7.78098e-09
7.80903e-09
7.6152e-09
7.07023e-09
6.45328e-09
5.91337e-09
5.36649e-09
4.88639e-09
4.49891e-09
4.26506e-09
4.11424e-09
3.84899e-09
3.35791e-09
2.69192e-09
2.01575e-09
1.40335e-09
9.22942e-10
5.52469e-10
3.23091e-10
1.63953e-10
8.64831e-11
3.70297e-11
1.89414e-11
6.87118e-12
4.56488e-12
1.64453e-12
1.89297e-12
9.32119e-13
1.75981e-12
1.14592e-12
2.55535e-12
2.02138e-12
2.82967e-09
2.17731e-09
1.77127e-09
1.62152e-09
1.50922e-09
1.44512e-09
1.37954e-09
1.11878e-09
7.47167e-10
4.22411e-10
1.81566e-10
4.60356e-11
4.84706e-12
1.85117e-12
1.03901e-11
2.3008e-11
2.50076e-11
1.60864e-11
7.59829e-12
3.54457e-12
1.89316e-12
1.06649e-12
6.58782e-13
4.42931e-13
2.87085e-13
1.65414e-13
7.50084e-14
3.57544e-14
9.42694e-15
3.73243e-15
4.07483e-16
7.73743e-16
1.09843e-15
2.24046e-15
5.09939e-15
5.60742e-15
1.12426e-14
9.28302e-15
1.59009e-14
1.02559e-14
2.5652e-11
1.9623e-11
1.90504e-11
2.15114e-11
2.23818e-11
2.31092e-11
2.33012e-11
1.73713e-11
8.914e-12
3.44363e-12
6.79631e-13
1.17626e-14
5.46e-13
3.07135e-12
6.55004e-12
9.04434e-12
9.01417e-12
6.70675e-12
3.99294e-12
2.04046e-12
9.09507e-13
3.40963e-13
1.0671e-13
2.48588e-14
4.0403e-15
2.64389e-16
3.70893e-18
1.20564e-16
5.44686e-16
8.72736e-16
1.25836e-15
1.2368e-15
1.40132e-15
1.06028e-15
1.22302e-15
7.91973e-16
9.4481e-16
5.4959e-16
6.4117e-16
3.24312e-16
2.95713e-14
1.75538e-14
2.7031e-14
4.05199e-14
4.63568e-14
5.71136e-14
5.88618e-14
3.26129e-14
9.3262e-15
9.98591e-16
1.43301e-15
2.54192e-14
9.27607e-14
1.60171e-13
1.86298e-13
1.57479e-13
9.30328e-14
3.72588e-14
1.01095e-14
1.76906e-15
1.26212e-16
2.21719e-18
5.0225e-17
1.67525e-16
2.59039e-16
2.91676e-16
2.7636e-16
2.33314e-16
1.81248e-16
1.36787e-16
9.9235e-17
7.11965e-17
5.05719e-17
3.63008e-17
2.61621e-17
1.80637e-17
1.44405e-17
8.09289e-18
9.25846e-18
4.47977e-18
)
;

boundaryField
{
    inlet
    {
        type            calculated;
        value           nonuniform List<scalar> 
20
(
1.40889e-34
4.97752e-33
3.89049e-33
2.50172e-36
7.46676e-36
2.45153e-35
5.46432e-35
1.46687e-34
2.74788e-34
4.84047e-34
8.06557e-34
9.96686e-34
6.45508e-34
1.69069e-34
3.84995e-35
3.85579e-35
1.10997e-35
4.6094e-33
5.15845e-33
1.40769e-34
)
;
    }
    outlet
    {
        type            calculated;
        value           nonuniform List<scalar> 
27
(
2.12328e-33
1.83563e-33
1.50594e-33
1.04852e-33
2.34982e-34
6.0406e-36
2.07572e-41
1.11804e-36
1.06544e-34
8.29866e-34
1.38939e-33
1.73369e-33
2.02307e-33
2.272e-33
2.47288e-33
2.50113e-33
2.02768e-34
2.39645e-36
9.54109e-39
5.562e-41
1.19831e-40
5.9112e-39
1.88721e-36
1.81067e-34
2.63664e-33
2.54265e-33
2.35885e-33
)
;
    }
    lowerWall
    {
        type            fixedValue;
        value           uniform 0;
    }
    upperWall
    {
        type            fixedValue;
        value           uniform 0;
    }
    defaultFaces
    {
        type            empty;
    }
}


// ************************************************************************* //
