/*--------------------------------*- C++ -*----------------------------------*\
| =========                 |                                                 |
| \\      /  F ield         | OpenFOAM: The Open Source CFD Toolbox           |
|  \\    /   O peration     | Version:  2112                                  |
|   \\  /    A nd           | Website:  www.openfoam.com                      |
|    \\/     M anipulation  |                                                 |
\*---------------------------------------------------------------------------*/
FoamFile
{
    version     2.0;
    format      ascii;
    arch        "LSB;label=32;scalar=64";
    class       volScalarField;
    location    "0.2";
    object      p;
}
// * * * * * * * * * * * * * * * * * * * * * * * * * * * * * * * * * * * * * //

dimensions      [0 2 -2 0 0 0 0];

internalField   nonuniform List<scalar> 
1880
(
0.00352094
0.00338376
0.00329032
0.00324156
0.00321596
0.00319413
0.00317103
0.00315394
0.00313733
0.00311941
0.00310372
0.00310106
0.00309471
0.00308989
0.00308164
0.00308383
0.0030904
0.0031085
0.00313724
0.00318015
0.0032333
0.00330484
0.00338524
0.00349036
0.00360976
0.00376359
0.00393193
0.0041609
0.00438817
0.00464548
0.00333967
0.0033077
0.0032657
0.0032278
0.00320078
0.00317895
0.00315684
0.0031438
0.00313058
0.00311254
0.00309398
0.0030926
0.00308736
0.00308131
0.00307112
0.00307243
0.0030818
0.00309694
0.00312831
0.00316274
0.00321938
0.00327835
0.00335857
0.00345167
0.0035552
0.00370259
0.00382237
0.00405628
0.00416799
0.00445105
0.00330614
0.00328638
0.00325455
0.003221
0.00319564
0.00317318
0.0031497
0.00313683
0.00312671
0.00310814
0.00308805
0.00308313
0.00308039
0.00307274
0.00306481
0.00306516
0.00307655
0.00308909
0.00311308
0.0031426
0.0031854
0.00323682
0.00329816
0.00337316
0.00345844
0.00355652
0.00366567
0.00377589
0.00387967
0.00394029
0.003248
0.00323858
0.00322004
0.00319686
0.00317829
0.0031587
0.00313485
0.00312227
0.00311436
0.00309701
0.00307624
0.00306979
0.00306744
0.00305857
0.00304952
0.00304722
0.00305684
0.00306497
0.00308368
0.00310424
0.00313831
0.00317725
0.00322168
0.00328161
0.00333319
0.00340787
0.00346653
0.00352887
0.00357251
0.00356462
0.00321912
0.00321384
0.00320075
0.00318234
0.00316748
0.00314951
0.00312541
0.00311203
0.00310484
0.00308748
0.00306617
0.00305714
0.00305462
0.00304313
0.00303348
0.00302746
0.00303512
0.00303762
0.0030499
0.00306191
0.00308486
0.00311033
0.00313978
0.0031756
0.00320738
0.00324636
0.00327071
0.00328913
0.00328007
0.00323417
0.00319193
0.00318812
0.00317775
0.00316256
0.00315088
0.00313532
0.00311207
0.00309845
0.00309122
0.00307398
0.00305212
0.00304169
0.00303763
0.00302444
0.0030121
0.00300313
0.00300569
0.00300421
0.0030077
0.00301317
0.00302306
0.00303767
0.00304993
0.00306682
0.00307793
0.00308485
0.00308518
0.0030602
0.00302413
0.00294833
0.00317148
0.00316883
0.00316036
0.0031473
0.00313767
0.00312363
0.00310091
0.0030868
0.00307903
0.00306117
0.0030385
0.00302618
0.00302036
0.00300443
0.00298958
0.00297658
0.00297497
0.00296768
0.00296391
0.00296084
0.0029597
0.00296199
0.00295917
0.00295827
0.00294898
0.00293353
0.00290676
0.00285803
0.0027939
0.0026958
0.00315516
0.003153
0.0031454
0.00313336
0.00312471
0.00311142
0.00308895
0.00307444
0.00306589
0.00304715
0.00302326
0.00300928
0.00300112
0.00298286
0.00296442
0.00294803
0.00294075
0.00292894
0.00291689
0.00290653
0.00289461
0.00288488
0.00286988
0.00285032
0.0028272
0.00278905
0.00274416
0.00267598
0.00258887
0.0024756
0.0031425
0.00314055
0.00313334
0.00312179
0.00311357
0.00310051
0.00307793
0.00306281
0.00305333
0.00303341
0.00300809
0.00299225
0.00298169
0.00296072
0.00293874
0.00291849
0.00290608
0.00288914
0.00286972
0.00285195
0.00282996
0.00280994
0.00278254
0.0027494
0.00271162
0.0026578
0.0025963
0.00251256
0.00240929
0.00228391
0.00313329
0.00313136
0.00312418
0.00311261
0.0031043
0.00309096
0.00306788
0.0030519
0.00304127
0.00301996
0.0029929
0.00297508
0.00296188
0.00293826
0.00291247
0.0028886
0.00287101
0.00284914
0.00282301
0.00279766
0.0027677
0.00273713
0.00270055
0.00265447
0.00260509
0.00253889
0.00246272
0.00236854
0.00225258
0.00211777
0.00312748
0.0031254
0.00311794
0.00310594
0.00309705
0.00308297
0.00305898
0.00304184
0.00302988
0.003007
0.00297804
0.0029581
0.00294226
0.00291595
0.00288642
0.00285895
0.00283643
0.00280983
0.00277745
0.00274546
0.00270796
0.00266905
0.00262356
0.00256778
0.00250798
0.00243178
0.00234462
0.00224148
0.0021171
0.00197558
0.00312516
0.00312278
0.00311477
0.00310198
0.00309212
0.0030769
0.00305168
0.00303316
0.00301975
0.00299517
0.00296415
0.00294198
0.00292345
0.00289447
0.00286131
0.00283035
0.00280329
0.00277202
0.00273432
0.00269592
0.00265243
0.00260579
0.00255303
0.00248923
0.00242047
0.00233697
0.0022408
0.00213115
0.00200118
0.00185446
0.00312658
0.00312367
0.00311466
0.00310046
0.00308901
0.00307204
0.00304517
0.00302508
0.00301013
0.00298377
0.00295063
0.00292627
0.00290515
0.00287356
0.00283688
0.00280262
0.00277133
0.00273584
0.00269338
0.00264959
0.00260077
0.00254798
0.00248889
0.00241888
0.00234297
0.00225353
0.00215106
0.00203618
0.00190251
0.00175288
0.00313256
0.00312904
0.00311886
0.00310303
0.0030897
0.00307071
0.00304197
0.00302022
0.00300361
0.00297515
0.00293953
0.00291274
0.002889
0.00285469
0.00281463
0.0027771
0.00274197
0.00270248
0.00265599
0.0026074
0.00255419
0.00249621
0.00243186
0.00235703
0.00227539
0.00218153
0.00207449
0.00195571
0.00181998
0.00166851
0.00314296
0.00313793
0.00312525
0.00310643
0.00308999
0.00306813
0.00303723
0.00301389
0.00299557
0.00296494
0.00292719
0.00289844
0.00287254
0.00283589
0.00279275
0.0027523
0.00271371
0.00267077
0.00262093
0.00256856
0.00251185
0.00244998
0.00238154
0.00230318
0.00221729
0.00212015
0.00201015
0.00188871
0.00175173
0.00159967
0.00316241
0.00315574
0.00313996
0.00311732
0.00309683
0.00307146
0.00303835
0.0030136
0.0029934
0.00296027
0.00292019
0.00288946
0.00286117
0.00282176
0.00277542
0.00273176
0.00268978
0.00264338
0.00259052
0.00253488
0.00247539
0.00241047
0.00233888
0.00225794
0.00216899
0.00206949
0.00195766
0.00183441
0.00169696
0.00154495
0.00318327
0.00317229
0.00315072
0.00312271
0.00309774
0.00306962
0.00303553
0.00300975
0.0029872
0.0029514
0.00290962
0.0028775
0.00284685
0.00280446
0.00275494
0.00270865
0.00266417
0.00261549
0.00256096
0.00250354
0.00244259
0.00237605
0.0023026
0.00222024
0.00212944
0.00202849
0.00191575
0.00179171
0.00165436
0.0015029
0.0032367
0.00321514
0.00317986
0.0031409
0.0031084
0.00307657
0.00304183
0.00301449
0.00298829
0.00294931
0.00290633
0.00287314
0.00284012
0.00279536
0.00274401
0.0026957
0.00264776
0.00259544
0.00253839
0.00247914
0.0024171
0.0023494
0.00227477
0.00219154
0.00209966
0.00199782
0.00188472
0.00176028
0.00162336
0.00147306
0.00326562
0.00323179
0.00318618
0.0031424
0.00310773
0.00307562
0.00304155
0.00301254
0.00298254
0.00294161
0.00289928
0.00286578
0.00282998
0.00278184
0.00272646
0.0026732
0.0026209
0.00256736
0.00251166
0.00245421
0.00239354
0.00232674
0.00225259
0.00216998
0.00207806
0.00197612
0.0018634
0.00173917
0.00160269
0.00145295
0.00344519
0.00330596
0.00320858
0.00315369
0.00312008
0.00308757
0.00305172
0.00301827
0.00298372
0.0029424
0.00290164
0.00286629
0.00282752
0.00277917
0.00272482
0.00267027
0.00261509
0.00255929
0.00250243
0.00244437
0.0023832
0.00231651
0.00224234
0.00215994
0.00206796
0.00196601
0.00185347
0.00172983
0.00159463
0.00144747
0.00491058
0.00421119
0.0037208
0.00341397
0.00272245
0.00180027
0.00082323
0.000388012
-0.000910176
-0.0027422
0.00446843
0.00367827
0.00325333
0.00294269
0.0020047
0.00123325
0.000495237
-0.000184839
-0.00141921
-0.00325038
0.00394454
0.00348179
0.00301908
0.00264654
0.00189716
0.00125479
0.000433635
-0.000363044
-0.00146941
-0.00261471
0.00352588
0.00309862
0.00264445
0.00220644
0.00156381
0.000891707
0.000191604
-0.000622123
-0.00153743
-0.00258658
0.00316173
0.00281664
0.0023885
0.00198197
0.00139743
0.000798546
0.000150781
-0.000618124
-0.00145981
-0.00230791
0.00284615
0.00252277
0.00212895
0.00167909
0.00118597
0.000585238
-1.99977e-05
-0.000719668
-0.00143646
-0.00215894
0.00257531
0.00228438
0.0019107
0.00149942
0.00104592
0.000506411
-6.34619e-05
-0.000684436
-0.00131171
-0.00193661
0.00234103
0.00206332
0.00171818
0.00131177
0.000894981
0.000395805
-0.000138275
-0.000700779
-0.00124532
-0.00178148
0.00213815
0.00188078
0.00155402
0.0011806
0.000789726
0.000338566
-0.000150423
-0.000649002
-0.00112937
-0.001605
0.00196566
0.00172044
0.00141537
0.00106188
0.000694909
0.000282406
-0.000166804
-0.00062031
-0.00104824
-0.00146599
0.00181781
0.00158775
0.00129972
0.000972813
0.000628156
0.0002484
-0.000158477
-0.000564238
-0.00094911
-0.00132536
0.00169424
0.00147435
0.00120493
0.000898757
0.000574231
0.00022351
-0.000147133
-0.000517801
-0.000868397
-0.00120728
0.00159024
0.00138133
0.00112776
0.000841977
0.000537134
0.000210843
-0.000127657
-0.000464896
-0.000786408
-0.00109675
0.00150507
0.0013043
0.00106565
0.00079769
0.000510653
0.000206184
-0.000105757
-0.000417122
-0.000715374
-0.00100163
0.00143564
0.00124219
0.0010164
0.00076426
0.000493816
0.000208491
-8.19338e-05
-0.00037112
-0.000649848
-0.000917191
0.00138107
0.0011934
0.000978653
0.000740377
0.000484766
0.000215727
-5.73271e-05
-0.000329386
-0.000592803
-0.000845066
0.00133904
0.00115547
0.000949646
0.000723134
0.000480538
0.000225636
-3.35256e-05
-0.000291983
-0.000543273
-0.000783995
0.00131035
0.00113038
0.000931381
0.000714072
0.000482101
0.000238448
-1.04043e-05
-0.000259409
-0.000502077
-0.000734364
0.00129003
0.00111238
0.00091887
0.000709396
0.00048629
0.000251641
1.13439e-05
-0.00023032
-0.000467399
-0.000693901
0.00128748
0.001112
0.000920929
0.000714461
0.000494843
0.000264035
2.75856e-05
-0.000210893
-0.000445648
-0.000672136
-0.0063835
-0.006583
-0.0068626
-0.00793154
-0.0100275
-0.0123461
-0.0129375
-0.0116429
-0.00877335
-0.00542579
-0.00229921
5.86121e-05
0.00158088
0.00235473
0.00261858
0.00256686
0.0023538
0.00208788
0.00182284
0.00158052
0.00136711
0.00118177
0.00102098
0.00088184
0.000761875
0.000658722
0.000570057
0.000493638
0.000427372
0.000369483
0.000318382
0.000272829
0.000231717
0.000194256
0.000159656
0.00012743
9.70156e-05
6.80689e-05
4.02418e-05
1.32162e-05
-0.00655418
-0.00659044
-0.00695413
-0.0083235
-0.0109498
-0.0135601
-0.0140813
-0.0125857
-0.00954663
-0.00597468
-0.00269836
-0.000200098
0.00137349
0.00221036
0.0025021
0.00247522
0.00228154
0.00203042
0.00177725
0.00154459
0.00133888
0.00115955
0.00100385
0.000868804
0.000751971
0.000651409
0.000564741
0.000489801
0.000424571
0.000367419
0.000316838
0.000271661
0.000230835
0.00019359
0.000159172
0.000127081
9.67933e-05
6.79311e-05
4.01847e-05
1.32294e-05
-0.00595879
-0.00654097
-0.00733436
-0.00931438
-0.0126435
-0.0155857
-0.016074
-0.014273
-0.0109292
-0.00700697
-0.0034227
-0.000719788
0.000974772
0.001895
0.00224791
0.00226481
0.0021085
0.00189099
0.00166805
0.00146136
0.00127676
0.00111396
0.0009708
0.000845253
0.000735642
0.000639944
0.000556536
0.000483831
0.000420178
0.000364134
0.000314362
0.000269784
0.000229432
0.000192552
0.000158446
0.000126607
9.65479e-05
6.78669e-05
4.02277e-05
1.33359e-05
-0.00646778
-0.00681069
-0.00766177
-0.010063
-0.0140844
-0.0174469
-0.0178752
-0.0160154
-0.0124867
-0.00822562
-0.00434954
-0.0014213
0.00041824
0.00143037
0.00186249
0.00195147
0.00185887
0.00169548
0.00151815
0.0013488
0.00119292
0.0010513
0.000923746
0.000809691
0.000708431
0.000619047
0.000540433
0.000471344
0.00041042
0.000356437
0.000308257
0.000264915
0.000225572
0.000189522
0.000156132
0.0001249
9.53431e-05
6.70953e-05
3.98069e-05
1.3215e-05
-0.00534068
-0.006757
-0.00801449
-0.0107534
-0.0148679
-0.0184118
-0.0188072
-0.0171945
-0.0138896
-0.00939521
-0.00526845
-0.00214383
-0.000172704
0.000886248
0.00136665
0.00152755
0.00152231
0.00144136
0.00132876
0.00120705
0.00108618
0.000970585
0.000862497
0.000762988
0.000672597
0.00059139
0.00051893
0.000454495
0.000397136
0.00034591
0.000299888
0.000258256
0.000220285
0.000185358
0.000152902
0.000122458
9.35827e-05
6.59282e-05
3.91603e-05
1.30223e-05
-0.00589545
-0.00639602
-0.00761539
-0.0103334
-0.0146326
-0.0181687
-0.0188379
-0.0174798
-0.0145543
-0.01017
-0.00588962
-0.00266796
-0.000625359
0.000479776
0.000970577
0.00114575
0.00117501
0.0011542
0.00111406
0.00105213
0.000971407
0.000882905
0.000794555
0.000710065
0.00063126
0.000558984
0.000493382
0.000434209
0.000380905
0.000332839
0.00028933
0.000249734
0.000213432
0.000179892
0.000148607
0.000119169
9.11701e-05
6.42921e-05
3.82176e-05
1.27131e-05
-0.00459285
-0.00641164
-0.00738236
-0.00983835
-0.0131226
-0.0160028
-0.0169306
-0.0162199
-0.0139366
-0.00999508
-0.00601371
-0.00298793
-0.00104892
8.86179e-05
0.000651835
0.000871943
0.000929255
0.000936072
0.000927711
0.000899575
0.000850639
0.000788699
0.000720658
0.000651545
0.000584479
0.000521232
0.000462736
0.000409286
0.000360673
0.000316469
0.000276129
0.000239114
0.00020492
0.000173116
0.000143284
0.000115085
8.8163e-05
6.22385e-05
3.70267e-05
1.23209e-05
-0.0051807
-0.0047737
-0.00725529
-0.00927285
-0.0116314
-0.0138081
-0.0147059
-0.0143204
-0.0124988
-0.00912761
-0.00571118
-0.00308308
-0.00138375
-0.000341745
0.000257427
0.000578101
0.000722187
0.000769722
0.000784235
0.000776375
0.000745074
0.000697695
0.000644305
0.000588948
0.000533977
0.000480857
0.000430473
0.000383375
0.000339649
0.000299219
0.000261869
0.000227334
0.00019526
0.000165296
0.000137066
0.000110265
8.45831e-05
5.97753e-05
3.55905e-05
1.18465e-05
-0.00429479
-0.00548839
-0.00752377
-0.00901163
-0.0104675
-0.0118448
-0.0124113
-0.0121737
-0.0106741
-0.00791393
-0.00517128
-0.00304517
-0.00159147
-0.000650706
-6.74673e-05
0.000278843
0.000481066
0.000594883
0.000648294
0.000659119
0.000644183
0.000614025
0.000573539
0.00052773
0.000481422
0.000435775
0.000392014
0.000350815
0.000312439
0.000276823
0.000243683
0.000212684
0.000183522
0.000155939
0.000129691
0.000104578
8.03703e-05
5.68788e-05
3.38997e-05
1.12856e-05
-0.0037042
-0.0048312
-0.00630298
-0.00760656
-0.00875905
-0.00976091
-0.0101387
-0.00984153
-0.00858693
-0.00653801
-0.00452509
-0.00290632
-0.00171734
-0.000878506
-0.000315499
3.86587e-05
0.000257554
0.000393825
0.000479173
0.000525361
0.000531569
0.000513789
0.000486195
0.000457497
0.000425679
0.000390517
0.000355824
0.000321962
0.000289058
0.000257443
0.000227326
0.00019882
0.000171861
0.00014631
0.000121925
9.85013e-05
7.58231e-05
5.37301e-05
3.20548e-05
1.06746e-05
-0.00335689
-0.00423962
-0.00547019
-0.00661616
-0.00744962
-0.0080977
-0.00836621
-0.00802404
-0.00694842
-0.00544011
-0.00399488
-0.00273837
-0.00172432
-0.000993254
-0.000488826
-0.000150457
7.49984e-05
0.000221098
0.0002944
0.000328561
0.000363913
0.000401584
0.000420468
0.000408437
0.000378395
0.000346585
0.000315471
0.000285458
0.000257311
0.000230776
0.000205535
0.000181314
0.000157933
0.00013527
0.000113247
9.18065e-05
7.08549e-05
5.03067e-05
3.0052e-05
1.00092e-05
-0.0029722
-0.00371633
-0.00471701
-0.00558543
-0.00619065
-0.00669652
-0.00683572
-0.00658111
-0.00584522
-0.00472265
-0.00359344
-0.00259585
-0.00177336
-0.00114253
-0.00068235
-0.000357405
-0.000110186
5.7553e-05
0.000128114
0.00016817
0.000219058
0.000260007
0.000283299
0.000295781
0.000300187
0.000292315
0.00027716
0.000257401
0.000235188
0.000212228
0.0001894
0.000167154
0.000145639
0.000124869
0.000104717
8.50625e-05
6.5777e-05
4.67752e-05
2.79768e-05
9.32131e-06
-0.00268597
-0.00330417
-0.00409237
-0.00482202
-0.00538374
-0.00572519
-0.00578187
-0.00554
-0.00495325
-0.00411225
-0.00323792
-0.00245341
-0.00177752
-0.00121796
-0.000790309
-0.000477914
-0.000236005
-4.98571e-05
7.39732e-05
0.000148318
0.000192011
0.000231382
0.000260488
0.00026769
0.000260519
0.000248165
0.00023204
0.000215201
0.000198347
0.000181513
0.000164618
0.000147534
0.000130255
0.000112811
9.53031e-05
7.78186e-05
6.04021e-05
4.3069e-05
2.58067e-05
8.59985e-06
-0.00242052
-0.00294348
-0.00357353
-0.0041627
-0.00457248
-0.00483589
-0.00490045
-0.00470965
-0.00427587
-0.00364801
-0.002949
-0.0022975
-0.00173591
-0.00125945
-0.000870244
-0.000570886
-0.000349729
-0.000185166
-9.64554e-05
-4.58989e-05
2.93314e-05
0.00012587
0.00019355
0.000222112
0.000225554
0.000219021
0.000208306
0.000195437
0.000181093
0.000165801
0.000149994
0.000134036
0.00011811
0.0001023
8.6561e-05
7.08515e-05
5.51319e-05
3.93938e-05
2.36433e-05
7.8824e-06
-0.00219386
-0.00263843
-0.00314542
-0.00362944
-0.00399748
-0.00420232
-0.0042314
-0.00407728
-0.00374124
-0.00325978
-0.00271512
-0.00218777
-0.00171178
-0.0013011
-0.000954321
-0.000673137
-0.000437386
-0.000254193
-0.000151677
-9.68413e-05
-3.79987e-05
2.58307e-05
7.67744e-05
0.000110871
0.00013119
0.000141605
0.000144953
0.000143609
0.00013913
0.000132361
0.000123807
0.000113733
0.000102418
9.01034e-05
7.70737e-05
6.3557e-05
4.97173e-05
3.56574e-05
2.14542e-05
7.15465e-06
-0.00198548
-0.00236681
-0.00278396
-0.00318012
-0.00347146
-0.00365376
-0.00369427
-0.00356687
-0.0032964
-0.00293008
-0.00250595
-0.00206652
-0.00165174
-0.00128881
-0.000986023
-0.000739723
-0.000545915
-0.000389212
-0.000255945
-0.000144798
-4.72138e-05
2.54548e-05
7.46848e-05
0.000105257
0.000122333
0.000130588
0.000132895
0.000131047
0.000126176
0.000119143
0.000110591
0.000101026
9.07416e-05
7.99026e-05
6.85584e-05
5.67594e-05
4.45701e-05
3.20653e-05
1.93387e-05
6.45279e-06
-0.00180012
-0.00213312
-0.00248404
-0.00281495
-0.00307437
-0.00322514
-0.00325658
-0.00316559
-0.00296068
-0.00266307
-0.00231457
-0.00195637
-0.00162002
-0.00131424
-0.00103684
-0.000795609
-0.000593238
-0.000436494
-0.000314156
-0.000222945
-0.000151126
-8.78288e-05
-3.51596e-05
5.35422e-06
3.53363e-05
5.68764e-05
7.16403e-05
8.10056e-05
8.60574e-05
8.7562e-05
8.61301e-05
8.21856e-05
7.61901e-05
6.85484e-05
5.96809e-05
4.99072e-05
3.94715e-05
2.85415e-05
1.72727e-05
5.76633e-06
-0.00163445
-0.00192774
-0.00222745
-0.00250761
-0.0027222
-0.00286101
-0.00290309
-0.00283227
-0.00266844
-0.00243785
-0.00215923
-0.00185999
-0.00156533
-0.00129135
-0.00104787
-0.000835869
-0.000664963
-0.000516148
-0.000384258
-0.000272563
-0.000178212
-0.000102267
-4.43124e-05
-2.02888e-06
2.79058e-05
4.85479e-05
6.21238e-05
7.02933e-05
7.42944e-05
7.51153e-05
7.3518e-05
7.00861e-05
6.51842e-05
5.90382e-05
5.18092e-05
4.36529e-05
3.47455e-05
2.52475e-05
1.53343e-05
5.1232e-06
-0.00148834
-0.00175161
-0.0020138
-0.00225694
-0.00244902
-0.00257013
-0.00261128
-0.00256358
-0.00243686
-0.00225058
-0.00202179
-0.00177082
-0.00152272
-0.00129266
-0.00107665
-0.000877358
-0.000701587
-0.000552869
-0.0004303
-0.000329305
-0.00024815
-0.000179859
-0.000122861
-7.658e-05
-3.95696e-05
-1.03496e-05
1.22655e-05
2.92192e-05
4.13063e-05
4.91518e-05
5.33536e-05
5.4403e-05
5.28735e-05
4.92774e-05
4.409e-05
3.76581e-05
3.02715e-05
2.21513e-05
1.35185e-05
4.52051e-06
-0.00135979
-0.00159929
-0.0018319
-0.0020455
-0.00221305
-0.00232501
-0.00237119
-0.00234034
-0.00224116
-0.00209133
-0.00190452
-0.00169637
-0.00148335
-0.00127493
-0.00107791
-0.000899112
-0.0007427
-0.000607153
-0.000485339
-0.000379013
-0.000285893
-0.000207193
-0.000143153
-9.23356e-05
-5.27442e-05
-2.24114e-05
3.66804e-07
1.70342e-05
2.87729e-05
3.65635e-05
4.11842e-05
4.32084e-05
4.30417e-05
4.09808e-05
3.73169e-05
3.23132e-05
2.6249e-05
1.93563e-05
1.18773e-05
3.97651e-06
-0.00124812
-0.00147004
-0.00168061
-0.00187209
-0.00202462
-0.00212766
-0.00217484
-0.00215729
-0.0020812
-0.00196164
-0.00180782
-0.00163011
-0.00144487
-0.00126583
-0.00109464
-0.000930035
-0.000777983
-0.000640998
-0.000521366
-0.000418511
-0.000330957
-0.000257274
-0.000195005
-0.000142782
-9.93962e-05
-6.37798e-05
-3.50028e-05
-1.22785e-05
5.10896e-06
1.77559e-05
2.62909e-05
3.13038e-05
3.34441e-05
3.32344e-05
3.11347e-05
2.74957e-05
2.26517e-05
1.68696e-05
1.0422e-05
3.49473e-06
-0.00115158
-0.0013603
-0.00155405
-0.00172808
-0.00186747
-0.00196388
-0.00201259
-0.00200687
-0.00194969
-0.00185241
-0.0017242
-0.00157523
-0.00141734
-0.00125785
-0.00109924
-0.000946426
-0.000805155
-0.000677801
-0.000563616
-0.000460566
-0.000369145
-0.000289047
-0.000220743
-0.000163822
-0.00011709
-7.93051e-05
-4.92278e-05
-2.56727e-05
-7.57935e-06
5.94548e-06
1.5627e-05
2.20126e-05
2.55835e-05
2.67395e-05
2.58928e-05
2.33923e-05
1.95846e-05
1.47525e-05
9.18576e-06
3.08671e-06
-0.00106965
-0.00126883
-0.00145068
-0.00161186
-0.001741
-0.00183197
-0.0018816
-0.00188418
-0.00184163
-0.00176398
-0.00165854
-0.00153176
-0.00139308
-0.00125128
-0.00111023
-0.000971241
-0.000837304
-0.000712144
-0.000597001
-0.000492997
-0.000401082
-0.000321333
-0.000253094
-0.000195005
-0.000145888
-0.000104883
-7.11623e-05
-4.39716e-05
-2.25709e-05
-6.28535e-06
5.61641e-06
1.37874e-05
1.88405e-05
2.12631e-05
2.15246e-05
2.00033e-05
1.70713e-05
1.30328e-05
8.18923e-06
2.75951e-06
-0.00100131
-0.00119384
-0.00136682
-0.00151779
-0.00163904
-0.00172586
-0.0017757
-0.00178494
-0.00175533
-0.00169367
-0.00160546
-0.00149708
-0.00137725
-0.00125211
-0.0011232
-0.000992425
-0.000864081
-0.000742323
-0.000629307
-0.000525937
-0.000432683
-0.000350067
-0.000277998
-0.000215995
-0.000163565
-0.000119978
-8.43203e-05
-5.55693e-05
-3.27676e-05
-1.51189e-05
-1.90248e-06
7.49022e-06
1.36434e-05
1.70433e-05
1.81744e-05
1.74236e-05
1.51787e-05
1.17601e-05
7.47268e-06
2.53873e-06
-0.000946426
-0.00113534
-0.00130282
-0.00144611
-0.00156064
-0.00164362
-0.00169326
-0.00170738
-0.0016874
-0.00163857
-0.00156606
-0.00147468
-0.00137017
-0.00125709
-0.00113811
-0.00101538
-0.00089226
-0.000772521
-0.000658957
-0.000553525
-0.00045772
-0.000372476
-0.000298003
-0.000233969
-0.00017962
-0.00013403
-9.63209e-05
-6.56416e-05
-4.11383e-05
-2.20612e-05
-7.63921e-06
2.77206e-06
9.80303e-06
1.39592e-05
1.57556e-05
1.55859e-05
1.38483e-05
1.08818e-05
6.97887e-06
2.3911e-06
-0.000902447
-0.00108991
-0.00125521
-0.00139425
-0.00150416
-0.00158378
-0.00163225
-0.00164968
-0.00163764
-0.00159914
-0.00153858
-0.0014613
-0.00137133
-0.00127079
-0.00116095
-0.00104382
-0.00092291
-0.000802484
-0.00068656
-0.000578219
-0.000479395
-0.000391117
-0.000313739
-0.000246971
-0.000190218
-0.000142671
-0.000103335
-7.13887e-05
-4.58375e-05
-2.58937e-05
-1.07314e-05
3.00231e-07
7.86535e-06
1.24714e-05
1.46663e-05
1.48302e-05
1.33898e-05
1.06617e-05
6.91621e-06
2.4513e-06
-0.000883099
-0.0010707
-0.0012333
-0.00136902
-0.00147647
-0.00155429
-0.00160195
-0.00162061
-0.0016119
-0.00157801
-0.00152323
-0.00145244
-0.00136868
-0.00127333
-0.00116771
-0.00105395
-0.000935295
-0.000815824
-0.000699698
-0.000590331
-0.000490099
-0.000400325
-0.000321506
-0.000253454
-0.000195614
-0.000147139
-0.000107043
-7.44224e-05
-4.83176e-05
-2.791e-05
-1.23643e-05
-1.01383e-06
6.82277e-06
1.16529e-05
1.40476e-05
1.43682e-05
1.30742e-05
1.04524e-05
6.80896e-06
2.4447e-06
)
;

boundaryField
{
    inlet
    {
        type            zeroGradient;
    }
    outlet
    {
        type            fixedValue;
        value           uniform 0;
    }
    lowerWall
    {
        type            zeroGradient;
    }
    upperWall
    {
        type            zeroGradient;
    }
    defaultFaces
    {
        type            empty;
    }
}


// ************************************************************************* //
