/*--------------------------------*- C++ -*----------------------------------*\
| =========                 |                                                 |
| \\      /  F ield         | OpenFOAM: The Open Source CFD Toolbox           |
|  \\    /   O peration     | Version:  2112                                  |
|   \\  /    A nd           | Website:  www.openfoam.com                      |
|    \\/     M anipulation  |                                                 |
\*---------------------------------------------------------------------------*/
FoamFile
{
    version     2.0;
    format      ascii;
    arch        "LSB;label=32;scalar=64";
    class       volScalarField;
    location    "0.3";
    object      nut;
}
// * * * * * * * * * * * * * * * * * * * * * * * * * * * * * * * * * * * * * //

dimensions      [0 2 -1 0 0 0 0];

internalField   nonuniform List<scalar> 
1880
(
3.4575e-11
3.79917e-12
5.97222e-13
7.8464e-14
1.54753e-14
2.14656e-13
1.60886e-14
5.89772e-14
3.19449e-14
2.83701e-14
6.60203e-15
5.4293e-14
1.05613e-13
1.82936e-13
1.166e-13
2.05136e-13
2.0537e-13
7.54993e-14
1.69929e-12
3.62386e-14
4.17724e-13
1.45457e-14
1.62296e-13
5.18627e-12
2.26967e-13
2.21399e-11
7.02057e-11
1.30132e-11
1.55106e-09
7.23783e-10
4.53118e-09
5.5174e-09
2.60092e-09
6.52508e-11
2.18738e-10
3.31331e-11
5.09694e-11
9.07674e-12
9.73635e-12
4.33023e-12
7.96693e-13
3.78987e-12
1.82891e-16
1.91096e-11
5.43322e-12
8.68831e-12
5.96727e-12
3.30262e-12
1.34666e-11
4.49523e-11
2.07093e-10
1.6764e-10
8.08287e-10
2.93068e-10
6.12124e-10
1.01488e-09
1.17279e-10
5.04959e-09
5.93723e-09
8.68711e-09
1.64746e-09
2.84018e-09
1.73079e-09
7.59257e-11
1.51796e-09
4.65762e-10
1.63939e-09
3.39668e-09
1.8995e-09
2.75897e-09
1.45421e-09
1.86946e-09
1.25486e-11
3.12302e-09
1.52072e-10
7.56919e-10
1.51335e-09
8.79539e-12
5.17919e-09
3.17225e-10
3.0145e-10
6.15954e-09
5.31926e-12
6.4818e-09
7.34277e-09
2.21612e-09
2.06868e-08
2.26366e-08
8.25851e-09
4.71894e-08
6.07074e-11
1.23352e-09
9.94647e-10
6.79942e-09
1.23696e-09
4.672e-09
3.23617e-10
3.66746e-09
1.64388e-09
3.50009e-09
1.83701e-08
3.26863e-09
1.33949e-08
3.8526e-09
2.22172e-08
2.39362e-09
1.81052e-08
5.31521e-09
6.21665e-09
8.76024e-09
1.16191e-08
8.93078e-09
9.55271e-09
1.15011e-08
9.88805e-09
1.44222e-08
1.9276e-08
2.65469e-08
2.71758e-08
2.65015e-08
3.19912e-11
8.6082e-10
7.55207e-10
1.58005e-11
1.49083e-09
3.82978e-10
2.1498e-09
8.33786e-10
5.40314e-09
4.06789e-09
7.56115e-09
1.37424e-08
3.60774e-09
2.11377e-09
3.92303e-09
1.59114e-09
2.86715e-08
2.67218e-09
1.55807e-09
6.63105e-09
5.81098e-09
7.59714e-09
4.62148e-09
1.03735e-08
5.60929e-09
1.19751e-08
1.36109e-08
2.26015e-08
1.93531e-08
2.99372e-08
1.60748e-11
7.40536e-11
3.50599e-10
1.5024e-10
5.51572e-10
2.03301e-09
6.82327e-10
1.63724e-09
1.89879e-09
6.00402e-09
3.51483e-09
1.44818e-09
1.45802e-10
2.45956e-09
1.02832e-09
2.42445e-10
9.68168e-10
2.25597e-09
3.22053e-10
3.62573e-09
3.04852e-09
5.59971e-09
5.63692e-09
8.46914e-09
9.75831e-09
1.28381e-08
1.54819e-08
1.76535e-08
2.19563e-08
2.17838e-08
1.41318e-11
1.48147e-10
4.90352e-10
1.6885e-11
2.21546e-09
1.44127e-09
2.64335e-09
9.84632e-10
5.0288e-09
5.43522e-09
6.13092e-09
5.54305e-10
1.84681e-09
1.57601e-09
1.46075e-09
2.15924e-09
1.98458e-09
1.94128e-09
2.82177e-09
3.07862e-09
4.02924e-09
5.76077e-09
6.1996e-09
7.66407e-09
1.00833e-08
1.04317e-08
1.38653e-08
1.61894e-08
1.86322e-08
2.09381e-08
2.14442e-11
1.02053e-10
4.59749e-10
1.69508e-10
1.54758e-09
2.08396e-09
1.56539e-09
1.30442e-09
2.77658e-09
5.37423e-09
3.33865e-09
7.50584e-10
1.88045e-09
1.93101e-09
2.55798e-09
1.66068e-09
2.77061e-09
4.30575e-09
4.73153e-09
4.51229e-09
5.84308e-09
6.54726e-09
7.44166e-09
8.42101e-09
1.08969e-08
1.15937e-08
1.45714e-08
1.52718e-08
1.9281e-08
1.84056e-08
3.91138e-11
1.09428e-10
5.94108e-10
3.72668e-10
1.91303e-09
2.16683e-09
1.90283e-09
1.31745e-09
2.85581e-09
4.32886e-09
2.92032e-09
1.66176e-09
2.07471e-09
2.35813e-09
2.29256e-09
2.63787e-09
3.46769e-09
3.88834e-09
5.44717e-09
4.87931e-09
6.05929e-09
6.95226e-09
7.31799e-09
7.80478e-09
1.02941e-08
1.06668e-08
1.33094e-08
1.45051e-08
1.72274e-08
1.77338e-08
7.27996e-11
1.88996e-10
7.20851e-10
6.72316e-10
1.78395e-09
2.15326e-09
1.75258e-09
1.51881e-09
2.36285e-09
3.84647e-09
2.61664e-09
2.05877e-09
2.65683e-09
2.83398e-09
3.07279e-09
2.76459e-09
3.86345e-09
5.24041e-09
5.96869e-09
5.01496e-09
6.21803e-09
6.80384e-09
7.51214e-09
8.19153e-09
1.0304e-08
1.08297e-08
1.31337e-08
1.37179e-08
1.65885e-08
1.66285e-08
1.55683e-10
4.08873e-10
8.77374e-10
9.56587e-10
1.68771e-09
2.21956e-09
1.76102e-09
1.73529e-09
2.03855e-09
3.53291e-09
2.17145e-09
2.75776e-09
3.22906e-09
3.14987e-09
3.13047e-09
3.08827e-09
4.12406e-09
5.53025e-09
5.71122e-09
5.33521e-09
5.94585e-09
6.76491e-09
7.4116e-09
7.98115e-09
9.85285e-09
1.06484e-08
1.23506e-08
1.31695e-08
1.52567e-08
1.60738e-08
2.4642e-10
7.87357e-10
9.77975e-10
1.16792e-09
1.75241e-09
2.09888e-09
1.94892e-09
2.03359e-09
2.2771e-09
3.21447e-09
2.55535e-09
3.23284e-09
3.34757e-09
3.45707e-09
3.68963e-09
3.48197e-09
4.41793e-09
5.39322e-09
5.76635e-09
5.39704e-09
6.21668e-09
6.87657e-09
7.56416e-09
8.1066e-09
9.80148e-09
1.03894e-08
1.19946e-08
1.26868e-08
1.45702e-08
1.53112e-08
6.3696e-11
7.17593e-10
9.84393e-10
1.25261e-09
1.50995e-09
2.18968e-09
2.04347e-09
2.11214e-09
2.20922e-09
3.27267e-09
2.41281e-09
3.23155e-09
3.79706e-09
3.77156e-09
3.64444e-09
3.65356e-09
4.46836e-09
5.68621e-09
5.41368e-09
5.71435e-09
6.36107e-09
7.01537e-09
7.63856e-09
8.1155e-09
9.39409e-09
1.02831e-08
1.13592e-08
1.22632e-08
1.3651e-08
1.46587e-08
1.78016e-12
7.49609e-10
8.77352e-10
1.36553e-09
1.7036e-09
2.05346e-09
2.13925e-09
2.44805e-09
2.40069e-09
3.11481e-09
2.67886e-09
3.61411e-09
3.80775e-09
3.90195e-09
4.06681e-09
4.06615e-09
4.6911e-09
5.4871e-09
5.6906e-09
6.06733e-09
6.61569e-09
7.21005e-09
7.8192e-09
8.2176e-09
9.4278e-09
1.00815e-08
1.11289e-08
1.19533e-08
1.31621e-08
1.40502e-08
2.10515e-12
2.26943e-10
6.79941e-10
1.08992e-09
1.13901e-09
2.15123e-09
2.19534e-09
1.99485e-09
2.28254e-09
3.07274e-09
2.41602e-09
3.13684e-09
4.00435e-09
4.01551e-09
3.82854e-09
4.0025e-09
4.72227e-09
5.64428e-09
5.49705e-09
6.10405e-09
6.79023e-09
7.33832e-09
7.8037e-09
8.16912e-09
8.94394e-09
9.81712e-09
1.05298e-08
1.13382e-08
1.23413e-08
1.32261e-08
3.1721e-11
1.09362e-09
1.00445e-09
1.45655e-09
1.51707e-09
1.86248e-09
1.95516e-09
2.56167e-09
2.3457e-09
2.80683e-09
2.67612e-09
3.44578e-09
3.80581e-09
3.91478e-09
4.06148e-09
4.30904e-09
4.82474e-09
5.47291e-09
5.6238e-09
6.36213e-09
6.87753e-09
7.51157e-09
8.06555e-09
8.42794e-09
9.11876e-09
9.70524e-09
1.02851e-08
1.09799e-08
1.18285e-08
1.26298e-08
1.68227e-12
1.97731e-12
3.19865e-10
7.25227e-10
8.64358e-10
1.43781e-09
1.45278e-09
1.13465e-09
1.69765e-09
2.33311e-09
1.93242e-09
2.47905e-09
3.85014e-09
3.80007e-09
3.59162e-09
4.15021e-09
4.95e-09
5.38907e-09
5.37488e-09
6.08658e-09
6.91382e-09
7.59214e-09
7.98574e-09
8.28538e-09
8.60331e-09
9.05932e-09
9.36336e-09
9.80933e-09
1.05627e-08
1.13999e-08
1.90228e-09
2.78107e-09
1.58236e-09
1.60696e-09
1.7375e-09
2.27244e-09
2.93886e-09
4.28512e-09
2.95017e-09
3.04661e-09
1.93553e-09
1.19435e-09
3.47794e-10
3.92222e-10
2.83218e-10
1.27702e-10
1.07702e-11
5.78331e-13
1.00043e-11
7.8716e-12
7.05975e-14
1.41677e-14
3.57828e-12
8.89391e-12
3.51434e-11
1.16198e-11
3.44293e-12
6.23089e-11
3.64802e-10
1.44916e-09
4.95741e-09
5.5417e-09
1.01641e-09
1.46909e-10
2.81026e-11
6.41807e-12
1.28662e-12
4.53136e-14
7.16382e-13
4.87802e-13
2.36681e-13
2.56463e-12
4.47576e-12
3.48651e-13
1.78332e-13
1.59222e-12
7.39763e-12
8.14039e-12
6.98925e-12
6.1887e-12
4.36481e-12
5.04146e-12
1.2111e-11
2.60431e-11
4.56001e-11
5.08318e-11
3.46325e-11
1.93925e-11
7.54574e-12
1.16406e-12
3.47464e-11
4.65371e-12
2.50833e-13
1.34526e-14
8.04505e-14
2.29589e-14
1.28606e-15
2.08717e-15
6.43127e-17
1.06832e-16
3.88638e-15
7.68982e-15
3.85684e-17
1.89536e-15
3.14203e-15
6.06795e-14
5.96982e-14
5.81056e-15
2.02213e-16
8.01571e-16
1.2292e-14
1.40112e-13
4.93592e-13
7.80229e-13
6.77308e-13
3.25331e-13
9.63557e-14
2.26352e-14
9.81745e-16
3.66076e-16
1.44298e-09
4.48474e-10
1.00749e-09
3.22307e-10
1.25361e-10
2.90038e-12
3.23612e-11
2.97202e-10
1.1275e-09
1.55811e-09
8.52301e-09
2.27754e-08
2.21531e-08
1.04957e-08
7.28856e-09
6.29542e-10
3.12123e-10
6.50567e-08
8.87778e-09
3.35871e-07
6.40171e-08
2.4231e-09
2.14703e-08
5.70677e-08
4.92308e-08
6.72283e-08
2.57488e-08
6.6355e-08
8.85623e-08
9.75578e-08
6.45643e-08
4.6134e-08
3.04028e-08
3.53084e-08
4.06172e-08
4.8202e-08
4.84772e-08
2.26531e-08
1.37759e-08
4.24914e-08
4.10693e-08
3.05981e-08
3.3248e-08
3.98119e-08
3.87424e-08
3.79791e-08
4.11789e-08
4.38953e-08
2.61538e-08
1.56231e-08
4.36991e-08
3.0816e-08
2.83429e-08
3.15337e-08
3.44921e-08
3.29383e-08
4.03912e-08
4.43063e-08
2.65849e-08
1.99838e-08
3.17964e-08
2.61321e-08
2.73984e-08
2.98447e-08
3.11505e-08
3.08411e-08
3.32223e-08
3.64284e-08
3.12428e-08
2.84245e-08
3.11933e-08
2.4641e-08
2.57494e-08
2.65264e-08
2.85981e-08
2.91525e-08
3.14832e-08
3.51607e-08
2.62868e-08
2.49947e-08
2.53787e-08
2.21885e-08
2.37937e-08
2.50288e-08
2.65246e-08
2.71202e-08
2.73586e-08
3.04059e-08
2.68135e-08
2.30164e-08
2.33783e-08
2.06245e-08
2.25717e-08
2.30776e-08
2.41515e-08
2.60928e-08
2.60865e-08
2.62964e-08
2.36648e-08
2.26235e-08
2.037e-08
1.90809e-08
2.09007e-08
2.18624e-08
2.2545e-08
2.35999e-08
2.35029e-08
2.43707e-08
2.24056e-08
1.98922e-08
1.88581e-08
1.79357e-08
1.96284e-08
2.03129e-08
2.09217e-08
2.22659e-08
2.18263e-08
2.13423e-08
2.04458e-08
1.91657e-08
1.69436e-08
1.67628e-08
1.83239e-08
1.92312e-08
1.95549e-08
2.02898e-08
2.01426e-08
1.99281e-08
1.88311e-08
1.72477e-08
1.60034e-08
1.58663e-08
1.719e-08
1.79087e-08
1.83596e-08
1.89822e-08
1.86329e-08
1.8086e-08
1.74528e-08
1.6184e-08
1.45526e-08
1.48806e-08
1.60874e-08
1.68861e-08
1.72611e-08
1.76338e-08
1.73707e-08
1.69026e-08
1.61723e-08
1.49083e-08
1.38834e-08
1.40567e-08
1.51213e-08
1.57456e-08
1.62253e-08
1.65416e-08
1.62966e-08
1.5784e-08
1.51737e-08
1.40329e-08
1.24048e-08
1.2909e-08
1.40694e-08
1.46723e-08
1.52728e-08
1.54415e-08
1.54068e-08
1.47435e-08
1.42791e-08
1.28005e-08
2.89869e-09
2.90269e-09
4.85281e-09
4.6518e-09
6.05895e-09
5.29585e-09
5.94181e-09
4.43909e-09
4.38638e-09
2.77747e-09
1.53419e-13
2.02565e-13
4.3913e-13
2.89694e-12
5.90083e-12
1.2608e-11
1.70238e-11
2.17912e-11
2.26595e-11
2.01293e-11
1.24391e-14
9.14724e-15
1.24765e-14
1.47061e-14
1.89994e-14
3.50565e-14
3.87726e-14
6.41181e-14
5.39133e-14
3.89423e-14
5.50424e-08
5.46147e-09
6.48951e-08
3.3194e-08
1.74437e-08
1.04587e-08
2.377e-09
9.87478e-10
2.88202e-10
2.53956e-10
2.91449e-10
9.84851e-10
2.93511e-09
1.21688e-08
5.29131e-08
1.33941e-07
5.52692e-08
7.41793e-09
1.04054e-09
1.93029e-10
4.71751e-11
1.31698e-11
3.3042e-12
5.89595e-13
3.33299e-14
3.86496e-16
3.04485e-14
9.23195e-14
1.32706e-13
1.29363e-13
9.17986e-14
5.26864e-14
2.42098e-14
9.89968e-15
3.48765e-15
1.179e-15
3.99605e-16
1.1958e-16
6.51595e-17
2.35049e-16
6.14003e-08
8.44007e-07
1.17534e-08
7.89322e-08
1.72897e-07
1.45342e-07
4.54867e-10
1.15449e-06
4.59438e-07
7.56417e-10
2.70328e-09
2.43345e-08
6.26674e-08
8.98611e-08
1.09535e-07
1.10835e-07
9.96757e-08
8.47564e-08
6.65243e-08
4.80796e-08
3.02246e-08
1.46285e-08
5.22026e-09
1.51911e-09
3.82484e-10
7.42066e-11
9.14475e-12
3.9618e-13
5.65801e-14
3.60741e-13
7.58611e-13
8.17258e-13
7.49751e-13
5.14534e-13
3.60393e-13
2.02817e-13
1.31913e-13
6.27207e-14
3.93618e-14
1.37236e-14
4.94184e-08
3.46244e-09
2.51153e-08
1.35623e-07
1.82979e-09
1.23377e-07
1.25956e-06
1.70342e-06
6.6312e-07
6.62447e-08
1.98871e-09
2.3324e-11
6.51047e-09
3.77957e-08
6.91522e-08
8.12662e-08
8.3546e-08
8.15823e-08
7.17566e-08
6.12271e-08
5.35453e-08
4.47777e-08
3.52084e-08
2.27551e-08
8.37516e-09
1.66786e-09
2.43605e-10
3.55964e-11
6.43924e-12
1.77285e-12
4.72285e-13
3.04389e-13
2.4e-13
2.74469e-13
4.00709e-13
3.96534e-13
5.18565e-13
3.8803e-13
3.87075e-13
1.88621e-13
1.6875e-08
1.12357e-08
1.41654e-07
8.44497e-08
5.96157e-09
2.00522e-07
1.55143e-06
2.03497e-06
1.07103e-06
1.93224e-07
3.3494e-08
3.93393e-09
2.7727e-10
1.75457e-08
6.07149e-08
7.77147e-08
7.18122e-08
7.42065e-08
7.00764e-08
5.40912e-08
4.13862e-08
3.05843e-08
1.17706e-08
4.63028e-09
5.1282e-09
1.01033e-08
4.64573e-09
1.57791e-10
1.6251e-12
6.09555e-12
5.89062e-11
1.66626e-10
1.81301e-10
1.08495e-10
2.6828e-11
3.17573e-12
1.03717e-14
9.46048e-13
6.51599e-12
7.68116e-12
3.68423e-08
1.29492e-07
1.58724e-07
6.25237e-08
3.27868e-08
8.13047e-07
2.15997e-06
2.4006e-06
1.52159e-06
4.11963e-07
1.25204e-07
8.4775e-08
5.71041e-09
2.54609e-09
4.63437e-08
9.12823e-08
7.68642e-08
6.01941e-08
6.13996e-08
4.31484e-08
3.27609e-08
2.20654e-08
6.49596e-10
7.06497e-09
1.53468e-09
1.24838e-10
4.91508e-12
5.72841e-10
3.34599e-09
8.03294e-10
5.20481e-12
1.08168e-10
4.89845e-10
8.60645e-10
8.17695e-10
5.80884e-10
2.12869e-10
2.90142e-11
1.47242e-11
9.14762e-11
2.35137e-06
1.27205e-07
8.07317e-08
1.32721e-08
4.05284e-08
3.0903e-07
1.33735e-06
1.85497e-06
1.1402e-06
3.08778e-07
1.61051e-07
2.67866e-07
1.11131e-07
4.23185e-11
2.40122e-08
9.00827e-08
9.39618e-08
6.0261e-08
4.38864e-08
2.87409e-08
4.0252e-09
6.99116e-09
1.56285e-08
2.38787e-09
1.36073e-08
6.61431e-11
1.19212e-11
1.59444e-10
4.84197e-10
9.23135e-10
1.53038e-09
2.02735e-09
1.48798e-09
1.0122e-09
8.88163e-10
8.32744e-10
5.69714e-10
4.65221e-10
3.70023e-10
4.59832e-10
2.86207e-08
2.17832e-07
2.21638e-07
2.15329e-07
6.88961e-10
3.88658e-07
2.08153e-06
2.44666e-06
1.8901e-06
7.24378e-07
3.08761e-07
4.97017e-07
3.64896e-07
1.64989e-09
3.14959e-08
8.01987e-08
6.4894e-08
3.49445e-08
4.74518e-08
3.63664e-08
1.27015e-08
7.65577e-10
1.13966e-08
9.42465e-09
1.16871e-09
5.21755e-09
1.21303e-08
6.22045e-09
3.35957e-09
2.02269e-09
1.36881e-09
9.00925e-10
6.4504e-10
4.51923e-10
5.63294e-10
4.89977e-10
2.96428e-10
2.47355e-11
6.80372e-12
2.68587e-10
2.22435e-08
6.3343e-08
6.50074e-09
5.92538e-08
4.3005e-08
5.47707e-09
2.74153e-07
1.80198e-06
1.82755e-06
1.09565e-06
6.68671e-07
9.16432e-07
4.5561e-07
1.04275e-09
8.62508e-08
8.59196e-08
6.86574e-08
5.97678e-09
8.36458e-10
3.00195e-08
3.27159e-08
2.61345e-08
2.37338e-08
2.24155e-08
1.78226e-09
8.38259e-15
1.24534e-11
1.2532e-09
8.60955e-09
1.48576e-08
9.37876e-09
3.5004e-09
9.46288e-10
8.15487e-11
8.01163e-13
6.20641e-10
1.96057e-09
6.82163e-10
3.4346e-10
5.37952e-10
1.01443e-06
2.16905e-08
3.99125e-09
1.18255e-09
8.04785e-08
2.77352e-07
8.649e-07
1.64197e-06
1.66507e-06
1.24094e-06
7.98775e-07
6.92048e-07
2.40323e-08
5.57564e-08
1.11844e-07
7.5045e-08
6.8634e-08
5.28488e-08
4.15109e-08
3.39093e-08
3.37656e-08
3.00529e-08
2.50296e-08
2.17621e-08
1.8769e-08
1.12988e-08
2.34648e-09
3.16929e-10
2.39224e-10
7.07283e-10
2.5705e-09
6.55021e-09
8.08455e-09
4.1883e-09
7.0067e-10
2.10989e-12
8.4767e-10
3.79451e-10
5.24072e-11
3.02697e-10
1.55232e-07
2.57446e-07
9.63673e-08
2.82341e-09
8.68204e-08
5.13794e-07
1.15761e-06
1.50468e-06
1.37417e-06
9.92501e-07
7.06259e-07
4.92954e-10
7.98114e-08
9.47641e-08
1.0198e-07
7.38727e-08
4.93562e-08
4.72782e-08
4.185e-08
3.37743e-08
3.30899e-08
3.31193e-08
2.69105e-08
8.95038e-09
2.72029e-09
9.29843e-09
1.45393e-10
3.29462e-09
2.09612e-08
3.57711e-09
3.75228e-09
3.084e-09
3.49705e-09
4.34421e-09
4.38144e-09
3.42544e-09
1.49121e-09
8.73202e-11
2.14325e-10
6.13968e-10
2.02774e-08
4.22069e-08
3.44132e-08
4.59473e-08
1.05744e-09
8.70848e-08
1.2302e-07
3.4815e-07
1.91065e-08
1.33661e-08
5.52547e-08
8.92381e-08
8.92548e-08
5.45613e-08
5.30762e-08
4.02825e-08
3.0209e-08
3.89754e-08
2.35022e-08
3.21196e-08
2.48142e-08
2.13896e-08
1.0578e-08
3.83944e-09
1.24931e-08
1.53467e-08
1.14366e-08
4.8278e-08
1.28397e-08
3.29427e-09
1.78068e-09
2.95053e-09
1.02022e-08
1.86467e-11
3.52703e-09
2.93965e-09
1.94138e-09
1.172e-09
4.66305e-10
3.89572e-11
3.75827e-08
9.59242e-09
4.99995e-08
6.39701e-08
6.29407e-08
5.29312e-08
4.94822e-08
5.78911e-08
4.68564e-08
5.64161e-08
5.67148e-08
5.63974e-08
7.26014e-08
5.66974e-08
4.33738e-08
3.40003e-08
3.7785e-08
4.62323e-08
1.89974e-08
7.31703e-10
1.55937e-08
1.36245e-08
1.80858e-08
1.15022e-07
2.10664e-07
2.83874e-10
3.44073e-09
5.22597e-11
1.82674e-10
4.86562e-09
3.25194e-09
3.9664e-10
3.77408e-09
8.69113e-09
9.22874e-09
4.45842e-09
1.24078e-10
3.54302e-11
7.99672e-10
1.00535e-09
5.03956e-08
2.6e-08
2.89397e-08
4.07081e-08
4.60956e-08
5.29183e-08
5.56406e-08
6.47807e-08
6.2671e-08
6.29098e-08
6.44836e-08
3.37204e-08
4.83099e-08
5.51708e-08
5.25554e-08
4.38362e-08
2.35688e-08
3.06101e-08
2.15265e-08
1.63419e-08
2.45009e-08
2.09002e-08
2.30531e-08
2.1497e-08
1.60117e-08
1.57666e-08
1.63443e-08
2.39662e-09
1.11292e-10
1.00543e-10
1.99672e-10
9.15283e-10
2.64706e-09
5.21039e-09
6.36657e-09
4.82615e-09
2.39402e-09
9.34639e-10
9.3998e-10
7.97886e-10
4.68064e-08
3.4251e-08
2.81262e-08
3.18644e-08
3.89885e-08
4.42823e-08
4.73963e-08
5.04294e-08
5.39987e-08
5.62282e-08
4.78242e-08
4.67501e-08
2.48347e-08
3.81129e-08
3.75956e-08
3.77119e-08
3.46672e-08
2.70622e-08
2.41184e-08
2.37573e-08
2.49708e-08
1.73672e-08
3.05504e-09
1.62693e-08
7.25534e-09
6.86001e-11
5.56122e-09
1.11735e-09
1.38374e-08
5.3192e-08
1.13268e-07
8.31957e-08
3.59525e-11
2.06612e-09
3.73105e-09
2.87756e-09
1.85302e-09
8.32656e-10
7.19079e-10
6.29901e-10
3.45923e-08
3.38075e-08
2.61148e-08
2.68967e-08
3.30521e-08
3.87264e-08
4.02845e-08
4.06361e-08
4.50347e-08
3.91608e-08
4.50668e-08
4.67321e-08
3.68575e-08
2.98763e-08
3.4872e-08
2.96935e-08
3.04191e-08
2.64301e-08
2.45061e-08
1.13026e-09
1.01535e-08
1.85341e-08
1.0363e-08
1.1692e-08
2.37305e-09
2.87994e-09
1.20072e-08
1.06679e-08
1.06386e-08
6.89334e-09
9.73662e-08
1.06239e-07
4.30757e-08
7.31464e-09
1.85965e-10
7.67349e-11
9.08464e-10
1.25954e-09
1.6666e-09
1.17177e-09
3.12144e-08
3.05818e-08
2.54831e-08
2.51238e-08
2.82537e-08
3.18063e-08
3.54438e-08
3.78978e-08
3.49345e-08
3.45375e-08
2.75489e-08
3.46728e-08
3.2768e-08
3.00773e-08
3.05895e-08
2.66482e-08
2.13446e-08
2.0482e-08
2.79026e-08
2.25393e-08
1.67115e-08
1.65755e-08
1.33169e-08
1.44495e-08
1.25055e-08
1.34294e-09
2.62255e-09
7.70915e-09
1.64558e-12
4.51896e-11
9.28842e-10
3.31125e-09
5.48765e-09
6.36074e-09
5.61518e-09
4.18013e-09
2.67896e-09
1.34414e-09
6.48114e-10
1.46488e-10
2.58435e-08
2.50278e-08
2.27791e-08
2.26451e-08
2.46933e-08
2.63194e-08
2.96776e-08
2.99713e-08
3.0653e-08
3.1912e-08
2.94549e-08
2.25805e-08
3.09206e-08
3.06019e-08
2.25912e-08
2.47432e-08
2.84658e-08
2.28831e-08
1.64095e-08
1.92694e-08
1.6914e-08
1.70292e-08
3.94e-09
6.82601e-09
1.19329e-08
1.54248e-09
1.82783e-10
3.03677e-09
2.34763e-08
7.07641e-08
5.23432e-08
1.52936e-08
1.87809e-09
1.05804e-09
1.70282e-09
1.60929e-09
1.59669e-09
8.37897e-10
8.28791e-10
7.68214e-10
2.2586e-08
2.32987e-08
2.08063e-08
2.06597e-08
2.24419e-08
2.26115e-08
2.36741e-08
2.59229e-08
2.52049e-08
2.44626e-08
2.47581e-08
2.57088e-08
1.93479e-08
2.35949e-08
2.42701e-08
2.08956e-08
1.93989e-08
2.01845e-08
1.74451e-08
1.52884e-08
1.45562e-08
1.78949e-08
1.21833e-08
7.77276e-09
8.71643e-09
7.76883e-09
8.69406e-09
9.65677e-09
7.7018e-09
5.06518e-09
3.72815e-09
4.10971e-09
4.72935e-09
4.66013e-09
4.04621e-09
3.09102e-09
2.27929e-09
1.32606e-09
8.4282e-10
1.49423e-10
2.00161e-08
1.94799e-08
1.85952e-08
1.83239e-08
1.88832e-08
2.04492e-08
2.05221e-08
2.05197e-08
2.22714e-08
2.17779e-08
1.99433e-08
2.24241e-08
2.16133e-08
1.86672e-08
2.04817e-08
2.19609e-08
1.88082e-08
1.71945e-08
1.94441e-08
1.9137e-08
1.5175e-08
1.39842e-08
1.47936e-08
1.49559e-08
1.29517e-08
9.25349e-09
5.51509e-09
3.40744e-09
4.45551e-09
6.21003e-09
7.14143e-09
6.89647e-09
5.91025e-09
4.60768e-09
3.35649e-09
2.32916e-09
1.54647e-09
9.65232e-10
6.21533e-10
6.58847e-10
1.77447e-08
1.77281e-08
1.66479e-08
1.6422e-08
1.69188e-08
1.66375e-08
1.7409e-08
1.81595e-08
1.73583e-08
1.83649e-08
1.8831e-08
1.7171e-08
1.83775e-08
1.96195e-08
1.73496e-08
1.69237e-08
1.92328e-08
1.84984e-08
1.56347e-08
1.51238e-08
1.63254e-08
1.60045e-08
1.34229e-08
1.00726e-08
8.7277e-09
9.05544e-09
8.99883e-09
8.47121e-09
7.70627e-09
6.56595e-09
5.34787e-09
4.28808e-09
3.63068e-09
3.0251e-09
2.55238e-09
1.91097e-09
1.44167e-09
8.51747e-10
5.93749e-10
3.50923e-10
1.60058e-08
1.55457e-08
1.47691e-08
1.44096e-08
1.4465e-08
1.47271e-08
1.453e-08
1.46672e-08
1.55153e-08
1.51719e-08
1.52224e-08
1.63261e-08
1.57518e-08
1.54147e-08
1.69276e-08
1.70457e-08
1.5839e-08
1.61164e-08
1.70379e-08
1.6286e-08
1.45506e-08
1.37446e-08
1.36462e-08
1.2913e-08
1.13238e-08
9.32072e-09
7.43404e-09
6.14286e-09
5.87247e-09
5.9506e-09
5.84029e-09
5.34295e-09
4.56701e-09
3.66916e-09
2.75506e-09
1.96424e-09
1.37478e-09
9.63908e-10
7.87851e-10
7.26195e-10
1.44348e-08
1.40254e-08
1.32255e-08
1.27158e-08
1.25524e-08
1.22994e-08
1.23594e-08
1.2497e-08
1.25349e-08
1.30422e-08
1.32973e-08
1.32829e-08
1.39704e-08
1.43213e-08
1.40657e-08
1.45466e-08
1.54123e-08
1.52046e-08
1.44801e-08
1.42187e-08
1.40567e-08
1.32833e-08
1.19286e-08
1.01737e-08
8.79564e-09
8.09666e-09
7.70127e-09
7.13133e-09
6.50676e-09
5.61377e-09
4.66121e-09
3.63704e-09
2.80828e-09
2.03488e-09
1.55713e-09
1.09424e-09
9.05839e-10
6.32193e-10
5.5191e-10
4.1286e-10
1.3316e-08
1.26901e-08
1.18474e-08
1.1255e-08
1.09815e-08
1.07579e-08
1.06296e-08
1.0781e-08
1.11449e-08
1.13993e-08
1.1769e-08
1.20848e-08
1.19369e-08
1.1845e-08
1.19609e-08
1.14559e-08
1.05633e-08
9.95138e-09
9.3963e-09
8.37846e-09
6.94419e-09
5.75455e-09
5.15451e-09
4.7342e-09
4.35316e-09
3.81737e-09
3.29323e-09
2.69132e-09
2.32665e-09
2.03895e-09
1.87593e-09
1.60393e-09
1.36879e-09
1.043e-09
8.55824e-10
6.40443e-10
5.86848e-10
4.50603e-10
5.00875e-10
3.73458e-10
1.20906e-08
1.15147e-08
1.06692e-08
9.95017e-09
9.5342e-09
9.25616e-09
9.14798e-09
9.15209e-09
9.11162e-09
8.88235e-09
8.08849e-09
6.72091e-09
5.02744e-09
3.0738e-09
1.33523e-09
4.02085e-10
8.51519e-11
6.12451e-12
3.7049e-13
2.13012e-11
4.1026e-11
2.56798e-11
1.325e-11
9.57808e-12
3.82152e-12
7.27702e-13
4.92123e-17
1.46023e-12
1.26339e-11
2.52968e-11
3.06169e-11
2.23821e-11
1.68093e-11
9.58374e-12
7.85903e-12
5.30258e-12
4.90947e-12
3.53573e-12
2.57564e-12
1.63913e-12
2.42108e-09
2.113e-09
1.84394e-09
1.74927e-09
1.78633e-09
1.8163e-09
1.82754e-09
1.80857e-09
1.61553e-09
1.26408e-09
8.72998e-10
4.81503e-10
1.67384e-10
2.26225e-11
3.46955e-13
1.34638e-11
8.47733e-11
2.04478e-10
2.78446e-10
2.67287e-10
2.0597e-10
1.40717e-10
9.05413e-11
5.086e-11
1.87468e-11
3.60016e-12
2.14118e-13
7.48704e-15
4.59609e-14
1.44349e-13
2.60498e-13
4.10329e-13
6.18361e-13
8.06462e-13
1.10376e-12
1.09536e-12
1.37527e-12
9.6784e-13
1.15489e-12
5.23623e-13
1.9109e-11
1.72734e-11
1.86197e-11
2.31181e-11
2.96393e-11
3.61424e-11
4.22071e-11
4.57758e-11
4.42791e-11
3.76654e-11
2.51102e-11
1.19494e-11
3.83719e-12
3.79079e-13
2.51148e-13
4.06927e-12
1.2732e-11
2.19615e-11
2.89401e-11
3.04152e-11
2.37215e-11
1.37697e-11
6.0771e-12
2.08997e-12
5.30227e-13
7.93899e-14
1.73608e-15
5.74891e-15
6.85087e-14
1.56457e-13
2.2424e-13
2.07959e-13
1.86375e-13
1.25546e-13
9.61227e-14
5.68373e-14
3.8796e-14
2.20495e-14
9.83563e-15
5.94401e-15
2.84106e-14
1.61199e-14
3.07557e-14
6.4788e-14
1.14035e-13
1.72756e-13
2.4421e-13
3.04902e-13
3.06304e-13
2.5892e-13
1.85398e-13
7.58215e-14
7.56901e-15
1.78873e-14
1.70744e-13
5.7254e-13
1.04758e-12
1.16582e-12
8.00562e-13
3.29401e-13
8.59035e-14
1.3162e-14
9.53283e-16
2.79556e-15
1.22662e-14
2.33319e-14
2.70423e-14
2.02037e-14
1.1205e-14
5.45109e-15
2.67612e-15
1.67279e-15
1.03653e-15
9.4135e-16
7.01184e-16
6.32174e-16
5.72276e-16
3.22598e-16
6.26134e-16
2.79712e-16
)
;

boundaryField
{
    inlet
    {
        type            calculated;
        value           nonuniform List<scalar> 
20
(
1.60558e-34
1.32472e-32
1.47366e-32
5.60664e-33
6.2113e-33
5.34086e-33
5.22795e-33
4.88204e-33
4.29595e-33
3.53027e-33
2.51985e-33
1.65705e-33
1.79294e-33
1.61197e-33
7.11789e-34
1.07453e-33
3.15468e-34
6.53212e-33
5.63222e-33
1.44067e-34
)
;
    }
    outlet
    {
        type            calculated;
        value           nonuniform List<scalar> 
27
(
5.39331e-34
3.54397e-36
1.02531e-33
7.68351e-34
1.86412e-34
3.68599e-33
5.79166e-34
3.28312e-33
4.77326e-34
4.66815e-34
4.66899e-39
1.04283e-33
1.3321e-33
2.70756e-33
2.2648e-33
1.36772e-33
4.67321e-36
2.33296e-38
2.69165e-37
6.73912e-38
1.03789e-37
2.85336e-37
1.12403e-39
1.2857e-35
4.63608e-34
1.97005e-33
2.50595e-34
)
;
    }
    lowerWall
    {
        type            fixedValue;
        value           uniform 0;
    }
    upperWall
    {
        type            fixedValue;
        value           uniform 0;
    }
    defaultFaces
    {
        type            empty;
    }
}


// ************************************************************************* //
