/*--------------------------------*- C++ -*----------------------------------*\
| =========                 |                                                 |
| \\      /  F ield         | OpenFOAM: The Open Source CFD Toolbox           |
|  \\    /   O peration     | Version:  2112                                  |
|   \\  /    A nd           | Website:  www.openfoam.com                      |
|    \\/     M anipulation  |                                                 |
\*---------------------------------------------------------------------------*/
FoamFile
{
    version     2.0;
    format      ascii;
    arch        "LSB;label=32;scalar=64";
    class       volScalarField;
    location    "0.3";
    object      p;
}
// * * * * * * * * * * * * * * * * * * * * * * * * * * * * * * * * * * * * * //

dimensions      [0 2 -2 0 0 0 0];

internalField   nonuniform List<scalar> 
1880
(
0.00324326
0.00311018
0.00301606
0.00296903
0.00294044
0.00292036
0.00289953
0.0028813
0.00286573
0.0028517
0.00284147
0.00283533
0.00282948
0.00283039
0.00283228
0.00283968
0.00285076
0.00286763
0.00289381
0.0029259
0.00296515
0.00301127
0.0030758
0.00314632
0.00324845
0.00337166
0.00350267
0.00367981
0.00384844
0.00397627
0.00306243
0.00303402
0.00299033
0.0029547
0.00292594
0.00290483
0.00288583
0.00287028
0.00285801
0.00284216
0.00283296
0.00282497
0.00282032
0.00281774
0.00281985
0.00282576
0.00283447
0.00285095
0.00287206
0.00290685
0.00292956
0.00298552
0.00302288
0.00311242
0.00319033
0.00330917
0.00343742
0.00358577
0.00373086
0.00389653
0.0030291
0.00301121
0.00297965
0.00294802
0.0029207
0.00289776
0.0028785
0.00286314
0.0028513
0.0028353
0.0028246
0.00281727
0.00280923
0.00280401
0.00280432
0.00280985
0.00281569
0.00282457
0.00284278
0.00286727
0.00289346
0.00293256
0.00297417
0.00303588
0.00310047
0.00318853
0.00327029
0.00337021
0.00345056
0.00349319
0.00297088
0.00296264
0.00294518
0.00292346
0.00290282
0.00288209
0.00286394
0.00284849
0.00283754
0.00282101
0.00281028
0.00280246
0.00279301
0.00278578
0.00278168
0.00278738
0.00278569
0.00279313
0.00280254
0.00282211
0.00284015
0.00286613
0.00289736
0.00293506
0.00298676
0.00303129
0.00308992
0.00314093
0.00316641
0.00318001
0.00294197
0.00293689
0.00292549
0.00290823
0.0028917
0.00287178
0.00285412
0.00283794
0.00282651
0.00280908
0.00279715
0.00278829
0.00277709
0.00276662
0.00275966
0.0027609
0.00275673
0.00275769
0.00276018
0.00277204
0.00278129
0.00279564
0.00281313
0.00283542
0.00286177
0.00288309
0.0029058
0.00291496
0.00290561
0.00287473
0.00291453
0.00291062
0.00290194
0.00288787
0.0028745
0.00285672
0.00283979
0.00282395
0.00281183
0.00279399
0.00278015
0.0027708
0.00275757
0.00274451
0.00273407
0.00273097
0.00272397
0.00271648
0.00271485
0.00271597
0.00271902
0.00272021
0.00272423
0.0027289
0.00273492
0.00273182
0.00272654
0.00270484
0.00266468
0.00259771
0.00289383
0.0028907
0.0028839
0.00287178
0.00286057
0.00284405
0.00282768
0.00281153
0.00279859
0.00277971
0.002764
0.00275314
0.00273764
0.00272192
0.00270761
0.00270056
0.00268887
0.00267563
0.00266697
0.00265981
0.00265411
0.00264356
0.00263446
0.00262407
0.00261055
0.0025881
0.00255819
0.00251122
0.00244488
0.0023556
0.00287706
0.00287438
0.00286829
0.0028572
0.00284676
0.00283119
0.00281465
0.00279846
0.00278431
0.00276458
0.00274668
0.00273414
0.00271666
0.00269724
0.00268035
0.00266767
0.00265283
0.00263231
0.00261775
0.00260295
0.00258734
0.00256716
0.00254557
0.00252053
0.00249208
0.00245104
0.00240189
0.00233482
0.00224919
0.00214088
0.00286398
0.00286143
0.00285561
0.00284496
0.00283482
0.0028196
0.00280266
0.00278608
0.00277062
0.00274984
0.0027297
0.00271547
0.00269534
0.0026728
0.00265242
0.00263536
0.00261617
0.0025894
0.00256881
0.00254648
0.00252218
0.0024927
0.00245925
0.0024224
0.00237956
0.00232375
0.00225887
0.00217582
0.00207444
0.00195317
0.0028543
0.00285178
0.00284582
0.00283522
0.00282477
0.00280946
0.00279168
0.00277442
0.00275757
0.00273535
0.00271326
0.00269664
0.00267438
0.00264808
0.00262483
0.00260321
0.00257956
0.0025475
0.0025201
0.00249176
0.00245885
0.00242064
0.0023776
0.00232908
0.00227511
0.0022071
0.00212869
0.00203369
0.00192087
0.00178933
0.00284804
0.00284537
0.002839
0.00282804
0.00281684
0.00280096
0.00278196
0.00276374
0.00274527
0.00272157
0.00269732
0.00267851
0.00265377
0.00262415
0.00259764
0.00257195
0.00254389
0.0025068
0.00247319
0.00243907
0.00239846
0.00235257
0.00230057
0.0022426
0.00217911
0.00210086
0.00201193
0.00190793
0.00178607
0.00164718
0.00284529
0.00284234
0.0028353
0.00282363
0.00281132
0.00279443
0.00277399
0.00275443
0.00273438
0.00270886
0.00268274
0.00266142
0.00263441
0.0026014
0.00257163
0.00254239
0.00250975
0.0024684
0.00242875
0.00238925
0.00234224
0.0022888
0.00222959
0.00216342
0.00209156
0.00200575
0.00190828
0.00179726
0.00166927
0.00152511
0.00284633
0.00284284
0.00283474
0.00282182
0.00280777
0.00278923
0.00276689
0.00274583
0.00272404
0.00269681
0.0026688
0.00264518
0.00261576
0.00257964
0.00254671
0.00251423
0.00247741
0.00243198
0.00238695
0.00234252
0.00228992
0.00223007
0.0021645
0.00209159
0.0020129
0.00192095
0.00181676
0.00170055
0.0015683
0.00142041
0.00285197
0.00284789
0.00283857
0.00282416
0.00280809
0.00278763
0.00276325
0.00274042
0.00271674
0.00268746
0.00265759
0.00263148
0.00259941
0.00256025
0.00252422
0.00248884
0.00244791
0.00239859
0.00234885
0.00229972
0.00224247
0.00217686
0.00210579
0.00202752
0.00194301
0.00184642
0.00173737
0.00161723
0.00148244
0.00133254
0.00286206
0.00285644
0.00284468
0.00282736
0.00280808
0.00278481
0.00275813
0.00273346
0.00270804
0.00267706
0.00264555
0.00261726
0.00258279
0.00254119
0.00250281
0.00246495
0.00242032
0.00236744
0.00231384
0.00226071
0.00219943
0.00212896
0.00205315
0.00197049
0.00188126
0.00178099
0.00166846
0.00154558
0.00140934
0.00125832
0.00288127
0.00287407
0.00285926
0.0028381
0.00281466
0.00278812
0.00275899
0.00273246
0.0027052
0.0026725
0.00263932
0.00260842
0.0025712
0.00252717
0.0024862
0.00244549
0.00239695
0.00234059
0.00228367
0.00222672
0.00216167
0.00208701
0.00200709
0.00192095
0.00182795
0.00172491
0.00161036
0.00148582
0.00134919
0.00119872
0.00290199
0.00289048
0.00286986
0.00284319
0.00281543
0.00278625
0.00275555
0.00272772
0.00269895
0.00266466
0.00262975
0.00259627
0.00255669
0.00251116
0.00246842
0.00242511
0.00237347
0.00231499
0.00225625
0.00219616
0.00212757
0.00204927
0.00196572
0.00187659
0.0017807
0.00167577
0.00156052
0.00143575
0.00129954
0.00114944
0.00295542
0.00293339
0.00289887
0.00286095
0.00282605
0.00279333
0.00276102
0.00273143
0.00270043
0.0026642
0.00262731
0.00259104
0.0025494
0.00250317
0.00245901
0.00241287
0.00235814
0.00229742
0.00223631
0.00217257
0.00210047
0.00201935
0.00193279
0.00184102
0.00174268
0.00163636
0.00152121
0.00139699
0.00126222
0.0011147
0.00298432
0.00295006
0.00290497
0.00286209
0.00282529
0.00279245
0.00275981
0.00272894
0.00269624
0.00265865
0.00262032
0.00258181
0.00253912
0.00249299
0.00244658
0.00239625
0.00233867
0.00227781
0.00221611
0.0021493
0.0020736
0.00198926
0.00189916
0.00180485
0.00170484
0.00159906
0.00148644
0.00136502
0.00123286
0.00108787
0.00316398
0.00302442
0.00292713
0.00287283
0.00283769
0.00280456
0.00276947
0.00273474
0.00269874
0.00266026
0.00262148
0.00258147
0.00253801
0.00249219
0.00244451
0.00239224
0.00233399
0.00227253
0.00220871
0.00213985
0.00206364
0.00197953
0.00188846
0.00179207
0.00169067
0.00158423
0.00147174
0.00135148
0.00122149
0.00108023
0.00412287
0.00385743
0.0035773
0.00297901
0.00242433
0.00172254
0.000884029
0.000150952
-0.00129887
-0.00252883
0.00394402
0.00352413
0.00314622
0.00258121
0.0019512
0.00122348
0.000379705
-0.000470458
-0.00168115
-0.00295379
0.00352529
0.00316826
0.00277217
0.00230247
0.00167926
0.00111028
0.000241967
-0.000451492
-0.00160565
-0.0025136
0.0031815
0.00281189
0.00243247
0.00195243
0.00139372
0.000767151
6.95889e-06
-0.000784735
-0.00167806
-0.0025891
0.00281641
0.00250889
0.00210849
0.00168966
0.0011427
0.000601768
-8.51179e-05
-0.000806427
-0.00161026
-0.00240853
0.00251938
0.00221592
0.00185465
0.00142805
0.000945958
0.000399284
-0.000217545
-0.000917131
-0.001618
-0.00231793
0.00224857
0.00197676
0.00161652
0.00122042
0.000766731
0.000266419
-0.000293005
-0.000923296
-0.00153911
-0.00214998
0.00201822
0.00175541
0.00142113
0.00103835
0.000624337
0.000150657
-0.000363522
-0.000939269
-0.00149621
-0.00203268
0.00181529
0.00156959
0.00125029
0.000890098
0.00050183
6.46662e-05
-0.000409401
-0.000925606
-0.00142039
-0.00189856
0.00164254
0.0014074
0.00110769
0.000766087
0.00040517
-1.26892e-06
-0.000440731
-0.000907122
-0.00135648
-0.00178689
0.00149319
0.00126927
0.000986019
0.00066518
0.000324844
-5.17968e-05
-0.000457449
-0.00087966
-0.00128637
-0.00167803
0.00136733
0.00115247
0.000885878
0.000583356
0.000263166
-8.72326e-05
-0.000462474
-0.000848111
-0.00122095
-0.00158027
0.00125925
0.00105302
0.000801224
0.000516854
0.00021411
-0.00011324
-0.000460291
-0.00081426
-0.00115787
-0.00149036
0.00117067
0.000972005
0.0007338
0.000465527
0.000179112
-0.000128245
-0.000450945
-0.000778843
-0.0010987
-0.00140881
0.00109488
0.000902514
0.000676666
0.000423511
0.000152169
-0.000137341
-0.000438894
-0.000744752
-0.00104466
-0.00133617
0.00103663
0.000850199
0.000634792
0.000394462
0.000136535
-0.000137831
-0.000422437
-0.000711015
-0.000995088
-0.00127172
0.00098668
0.00080439
0.000598577
0.000370335
0.000125051
-0.000135462
-0.000405641
-0.000680072
-0.0009513
-0.00121609
0.000954561
0.000776557
0.000577865
0.000358527
0.000122921
-0.000127104
-0.000386731
-0.000651157
-0.000913402
-0.00116948
0.000928874
0.000753921
0.000561716
0.000351123
0.000124605
-0.000116224
-0.000366742
-0.000623018
-0.000879026
-0.00112925
0.000925169
0.000752438
0.000562212
0.000354281
0.00013089
-0.000106374
-0.000353151
-0.000606434
-0.000859995
-0.00111051
-0.00570375
-0.00591141
-0.00595977
-0.00616314
-0.00733736
-0.00960394
-0.0123408
-0.013735
-0.0135884
-0.0120641
-0.00971157
-0.00686547
-0.00390766
-0.00130248
0.000723781
0.00201564
0.00263084
0.00283707
0.00275709
0.00253619
0.00225783
0.0019714
0.00170126
0.00145791
0.00124367
0.00105495
0.000890118
0.000747249
0.000624154
0.000519028
0.00042962
0.000353869
0.000289396
0.00023429
0.000186497
0.000144587
0.000107189
7.33321e-05
4.23552e-05
1.33961e-05
-0.00581676
-0.00605208
-0.00599794
-0.00636388
-0.00800248
-0.0106261
-0.0134206
-0.014738
-0.0143847
-0.0127209
-0.0102493
-0.00737842
-0.00434049
-0.00163649
0.000468674
0.00181762
0.002477
0.00270991
0.00265768
0.00245874
0.00219838
0.00192555
0.00166472
0.00142804
0.00121779
0.00103386
0.000873225
0.000734107
0.000614352
0.000512136
0.000425212
0.000351436
0.000288475
0.000234342
0.000187178
0.000145513
0.000108206
7.42239e-05
4.30389e-05
1.38045e-05
-0.00559746
-0.00587054
-0.00617437
-0.00710363
-0.00913776
-0.0119511
-0.0149331
-0.0162202
-0.0156645
-0.0137603
-0.0111603
-0.00823393
-0.0051212
-0.00227893
-2.50286e-05
0.00141583
0.00214116
0.00242236
0.00242013
0.00226329
0.00203962
0.0017992
0.00156609
0.00135214
0.00116142
0.000992947
0.000845376
0.00071704
0.000605971
0.00050982
0.000426505
0.000354475
0.000292106
0.000237861
0.000190296
0.000148183
0.000110411
7.6007e-05
4.42411e-05
1.4393e-05
-0.00533893
-0.00551321
-0.0056698
-0.00732911
-0.010009
-0.0131992
-0.0162719
-0.0176028
-0.0168838
-0.014759
-0.012061
-0.00915772
-0.00601379
-0.00300987
-0.000638636
0.000908789
0.00169596
0.00203015
0.002096
0.00200279
0.00182965
0.00163172
0.00143539
0.00125157
0.00108551
0.000937919
0.000806432
0.000689181
0.000585799
0.000495387
0.000416426
0.000347595
0.000287582
0.000235059
0.000188795
0.000147567
0.000110423
7.63698e-05
4.47489e-05
1.47657e-05
-0.00519104
-0.00574354
-0.00570765
-0.0076911
-0.0104332
-0.013654
-0.0168202
-0.0182659
-0.0175998
-0.0154404
-0.0128173
-0.010005
-0.00687252
-0.00374936
-0.00126331
0.000376914
0.00121941
0.0015869
0.00171006
0.00169148
0.00158685
0.00144253
0.00128639
0.00113341
0.000992454
0.00086602
0.000752793
0.00065112
0.000559213
0.000476562
0.000403186
0.000338366
0.000281207
0.000230667
0.000185654
0.00014549
0.000109037
7.55036e-05
4.4197e-05
1.45293e-05
-0.00480435
-0.00548022
-0.00503199
-0.00728402
-0.0103396
-0.0136651
-0.0168859
-0.0183591
-0.0177496
-0.0156011
-0.0130576
-0.0104103
-0.00744498
-0.00433142
-0.0018293
-0.000170154
0.00073104
0.00115951
0.00133876
0.00137789
0.00133345
0.00124613
0.00113794
0.00101965
0.000902862
0.000796421
0.000700152
0.000611139
0.000528363
0.000452643
0.000384491
0.00032379
0.000269904
0.000222141
0.000179624
0.000141279
0.000106354
7.40397e-05
4.36476e-05
1.44988e-05
-0.00502159
-0.00599192
-0.00468528
-0.00705622
-0.00981844
-0.0128739
-0.0156772
-0.0171363
-0.0167836
-0.0148723
-0.0125842
-0.0102014
-0.00749546
-0.00458851
-0.00222362
-0.000673199
0.000217662
0.000707615
0.000971325
0.001088
0.00110274
0.00105998
0.000990229
0.000904313
0.000811547
0.000722195
0.000640038
0.000563731
0.000491761
0.000424249
0.000362226
0.000306338
0.000256386
0.000211713
0.000171592
0.000135153
0.000101727
7.07311e-05
4.15394e-05
1.36795e-05
-0.00518185
-0.00385442
-0.0043192
-0.00648605
-0.00911539
-0.0116817
-0.013979
-0.0153164
-0.0152507
-0.0137648
-0.0117738
-0.00961052
-0.00717245
-0.00457348
-0.00242949
-0.00102377
-0.000204136
0.000296707
0.000607105
0.00078829
0.00087097
0.000881626
0.00084617
0.000785687
0.000715282
0.000644599
0.000575954
0.000509287
0.000446431
0.00038825
0.000334197
0.000284287
0.000238825
0.000197977
0.000161131
0.000127649
9.68811e-05
6.78569e-05
4.01481e-05
1.33524e-05
-0.00413027
-0.005017
-0.00532449
-0.00648743
-0.00865866
-0.0108277
-0.0126708
-0.0137528
-0.013633
-0.0124041
-0.0106856
-0.00876521
-0.00657627
-0.00432188
-0.00248702
-0.00125771
-0.000478646
3.02567e-05
0.000350215
0.000541724
0.000648337
0.000695164
0.00069394
0.000658236
0.000607225
0.000553125
0.0005005
0.000450081
0.000400008
0.000350035
0.000302742
0.000259354
0.000219591
0.000182926
0.000149203
0.000117985
8.87439e-05
6.20066e-05
3.6633e-05
1.20956e-05
-0.00362646
-0.00441881
-0.0048156
-0.00604957
-0.00794499
-0.00967086
-0.0110171
-0.0118029
-0.0117516
-0.0107911
-0.00931579
-0.00762402
-0.00581098
-0.00401921
-0.002524
-0.00147324
-0.000759504
-0.000249694
0.000106215
0.000325905
0.000448983
0.000514371
0.000536664
0.000524758
0.000493637
0.00045691
0.000416422
0.000371969
0.000329297
0.000292847
0.000259781
0.000226759
0.000194037
0.00016315
0.000134474
0.000108013
8.32238e-05
5.87464e-05
3.47006e-05
1.15248e-05
-0.00335207
-0.00413359
-0.00478498
-0.00574658
-0.0071304
-0.00837528
-0.00933387
-0.00990167
-0.00984374
-0.00913796
-0.00799715
-0.00661868
-0.00517463
-0.00380497
-0.00260093
-0.00165943
-0.000979199
-0.000493131
-0.000153302
8.11966e-05
0.000236562
0.000329107
0.000373448
0.000384207
0.000378834
0.000364142
0.000338992
0.000308603
0.00027903
0.000250166
0.000221303
0.000193825
0.000168298
0.0001439
0.000119519
9.56866e-05
7.23599e-05
5.04784e-05
3.00006e-05
9.92789e-06
-0.00307324
-0.00378542
-0.00445235
-0.00523382
-0.00624484
-0.00717959
-0.0078829
-0.00828793
-0.00826256
-0.00775941
-0.00691334
-0.00584939
-0.00469517
-0.00358581
-0.00260039
-0.00178781
-0.00116609
-0.000705362
-0.000371388
-0.000131243
3.86025e-05
0.000150707
0.000215119
0.000246725
0.00026045
0.000264471
0.000258017
0.000239557
0.000214633
0.000191661
0.00017326
0.000156582
0.000138963
0.000120693
0.000102046
8.35642e-05
6.58321e-05
4.72058e-05
2.83534e-05
9.43506e-06
-0.00284115
-0.00346075
-0.00410979
-0.00477586
-0.00555411
-0.00627292
-0.00680558
-0.00709812
-0.00706382
-0.00667943
-0.00603796
-0.0052175
-0.00429606
-0.00338273
-0.00255553
-0.00185432
-0.00129474
-0.000863109
-0.000535561
-0.000290693
-0.000112515
1.30578e-05
9.78923e-05
0.00014784
0.000171592
0.000183666
0.000186923
0.000181101
0.00017374
0.000168317
0.000159694
0.000144773
0.000125232
0.000106009
8.75669e-05
6.92342e-05
5.24362e-05
3.712e-05
2.21336e-05
6.94827e-06
-0.00263165
-0.00317783
-0.00376396
-0.00435188
-0.00496901
-0.00552107
-0.00592021
-0.00612781
-0.00610747
-0.00582248
-0.00532105
-0.0046764
-0.00394552
-0.00320394
-0.00250965
-0.00189732
-0.00139301
-0.000996566
-0.000687791
-0.000447687
-0.000265045
-0.000134443
-4.11184e-05
2.59532e-05
7.05218e-05
9.56396e-05
0.000107168
0.000111328
0.000108599
0.000101114
9.32199e-05
8.89941e-05
8.68337e-05
8.26708e-05
7.50154e-05
6.36167e-05
5.10232e-05
3.68424e-05
2.22491e-05
7.86731e-06
-0.0024578
-0.00293179
-0.00344859
-0.00396712
-0.00447608
-0.00491338
-0.0052239
-0.00538763
-0.00536981
-0.00514882
-0.00475298
-0.00423525
-0.00364628
-0.00303839
-0.00245501
-0.00192602
-0.00147445
-0.00110909
-0.000819197
-0.000586707
-0.000401033
-0.000258525
-0.000154278
-7.83394e-05
-2.42501e-05
1.55301e-05
4.66976e-05
6.41345e-05
6.67571e-05
6.51243e-05
6.44476e-05
6.40826e-05
6.21354e-05
5.65434e-05
4.89392e-05
4.07918e-05
3.12862e-05
2.2225e-05
1.35759e-05
4.51503e-06
-0.00229719
-0.00271471
-0.00316674
-0.00362201
-0.00404818
-0.00439944
-0.00464673
-0.00478208
-0.00477129
-0.00459785
-0.00428403
-0.00386679
-0.00338619
-0.00288087
-0.00238801
-0.00193397
-0.00153406
-0.00119647
-0.00091792
-0.000691818
-0.000511031
-0.000367615
-0.000254876
-0.000168945
-0.000106714
-6.25274e-05
-2.92999e-05
-4.83479e-06
1.27556e-05
2.80784e-05
4.16206e-05
4.9419e-05
5.22224e-05
5.13475e-05
4.81435e-05
4.32195e-05
3.57386e-05
2.65981e-05
1.58066e-05
5.56347e-06
-0.00215057
-0.00252363
-0.00291935
-0.00331579
-0.00368251
-0.00398118
-0.00418842
-0.00429549
-0.00428852
-0.0041528
-0.00390358
-0.00356382
-0.00316467
-0.00274335
-0.00232827
-0.00193551
-0.00157879
-0.00127116
-0.00101341
-0.000797712
-0.000618794
-0.000475111
-0.000360566
-0.000266355
-0.000191066
-0.000130706
-8.49676e-05
-5.31348e-05
-2.97446e-05
-1.37121e-05
-2.167e-06
6.21926e-06
1.17495e-05
1.44893e-05
1.48086e-05
1.33222e-05
1.06409e-05
7.66339e-06
4.92886e-06
1.52511e-06
-0.00201718
-0.00235328
-0.00270107
-0.00304895
-0.00336727
-0.00362309
-0.00380031
-0.00389346
-0.00389074
-0.00378235
-0.00358095
-0.0033055
-0.00297738
-0.00262434
-0.00226872
-0.00192607
-0.00161014
-0.0013304
-0.00108886
-0.000882861
-0.000707529
-0.000558859
-0.000435635
-0.000337984
-0.000260198
-0.000198868
-0.000148124
-0.000105704
-7.03886e-05
-4.16821e-05
-1.92817e-05
-2.75894e-06
8.65495e-06
1.58026e-05
1.96425e-05
2.0703e-05
1.93487e-05
1.5791e-05
1.02904e-05
3.66627e-06
-0.00189523
-0.00220141
-0.0025122
-0.00281931
-0.0030992
-0.00332466
-0.00347994
-0.00356229
-0.00356529
-0.00347934
-0.00331459
-0.00308915
-0.00281739
-0.00251838
-0.00221354
-0.00191747
-0.00163844
-0.00138392
-0.0011577
-0.000960084
-0.000790713
-0.000647563
-0.000525764
-0.000420076
-0.000331068
-0.000257822
-0.000198174
-0.000149509
-0.000111461
-8.22329e-05
-5.93949e-05
-4.15981e-05
-2.81957e-05
-1.85542e-05
-1.19839e-05
-7.67453e-06
-4.99728e-06
-3.20917e-06
-1.78909e-06
-6.9019e-07
-0.00178577
-0.00206782
-0.00234798
-0.00262197
-0.00287025
-0.00306994
-0.00321033
-0.00328596
-0.00329136
-0.00322518
-0.00309307
-0.0029053
-0.00267775
-0.00242777
-0.00216796
-0.00190788
-0.00165847
-0.0014278
-0.00121861
-0.00103136
-0.000865427
-0.000718417
-0.00058988
-0.000480716
-0.000389305
-0.000312636
-0.000247589
-0.000192018
-0.000144758
-0.000105537
-7.38025e-05
-4.87939e-05
-2.96508e-05
-1.55746e-05
-5.67949e-06
7.0251e-07
4.17749e-06
5.11514e-06
3.86006e-06
1.507e-06
-0.00168783
-0.00195056
-0.00220699
-0.00245398
-0.00267688
-0.0028573
-0.00298442
-0.00305503
-0.00306567
-0.00301369
-0.0029054
-0.00275165
-0.00256254
-0.00235004
-0.00212604
-0.00190021
-0.00168035
-0.00147156
-0.00127574
-0.0010953
-0.000933196
-0.000789926
-0.000662494
-0.000548453
-0.000448278
-0.000362672
-0.000289619
-0.000228241
-0.000178177
-0.000138068
-0.000105803
-7.99557e-05
-5.95707e-05
-4.37712e-05
-3.16496e-05
-2.23088e-05
-1.51196e-05
-9.59117e-06
-5.0659e-06
-1.74104e-06
-0.00160163
-0.00184912
-0.00208645
-0.002312
-0.00251403
-0.00267756
-0.00279488
-0.00286206
-0.00287538
-0.00283597
-0.00274931
-0.0026219
-0.00246303
-0.00228393
-0.00209346
-0.00189739
-0.00170147
-0.00151117
-0.00132944
-0.00115828
-0.000999694
-0.000854041
-0.000720606
-0.000600911
-0.000496598
-0.000406464
-0.000328971
-0.000261944
-0.000204591
-0.000156348
-0.000116762
-8.48942e-05
-5.97294e-05
-4.05022e-05
-2.62991e-05
-1.5969e-05
-8.83459e-06
-4.13911e-06
-1.41882e-06
-2.64315e-07
-0.00152651
-0.00176217
-0.00198487
-0.00219332
-0.00237861
-0.00252895
-0.0026374
-0.00270096
-0.00271746
-0.00268811
-0.00261757
-0.00251245
-0.002381
-0.00223096
-0.00206783
-0.00189723
-0.00172496
-0.00155434
-0.00138552
-0.00121984
-0.00106192
-0.0009151
-0.000779687
-0.000655863
-0.000544675
-0.000446866
-0.000361642
-0.000289098
-0.000228665
-0.000178997
-0.000138566
-0.000105855
-7.9672e-05
-5.88198e-05
-4.23224e-05
-2.97421e-05
-2.01753e-05
-1.28786e-05
-7.16892e-06
-2.42827e-06
-0.00146266
-0.00168967
-0.00190116
-0.00209559
-0.00226637
-0.00240522
-0.00250634
-0.00256699
-0.00258534
-0.00256355
-0.00250691
-0.00242123
-0.00231282
-0.00218751
-0.00205014
-0.0019047
-0.00175343
-0.00159784
-0.00143959
-0.00128133
-0.00112617
-0.000976398
-0.00083451
-0.000702756
-0.000584212
-0.000480193
-0.000390026
-0.000312326
-0.000246469
-0.000191681
-0.000146488
-0.000109779
-8.03541e-05
-5.71505e-05
-3.92165e-05
-2.56643e-05
-1.57003e-05
-8.60906e-06
-3.81913e-06
-9.33702e-07
-0.00140987
-0.00163157
-0.00183593
-0.00202028
-0.00217911
-0.0023074
-0.00240131
-0.00245824
-0.00247746
-0.00246163
-0.00241559
-0.00234525
-0.00225703
-0.00215564
-0.0020425
-0.00191904
-0.0017862
-0.00164463
-0.00149516
-0.00133994
-0.00118265
-0.0010283
-0.000881099
-0.000744361
-0.000619598
-0.000508354
-0.000411377
-0.000328764
-0.000259455
-0.000202257
-0.000155643
-0.000118095
-8.81243e-05
-6.4452e-05
-4.59583e-05
-3.17006e-05
-2.09226e-05
-1.27833e-05
-6.77963e-06
-2.11381e-06
-0.0013658
-0.0015843
-0.00178417
-0.00196124
-0.0021121
-0.00223317
-0.00232086
-0.00237369
-0.00239271
-0.00238057
-0.00234261
-0.00228539
-0.00221406
-0.00213209
-0.00204177
-0.00194133
-0.00182704
-0.00169703
-0.00155239
-0.00139679
-0.00123514
-0.00107357
-0.000918043
-0.000772983
-0.000641116
-0.000524247
-0.000423016
-0.000337038
-0.000264978
-0.000205463
-0.000156839
-0.000117613
-8.62354e-05
-6.14837e-05
-4.22292e-05
-2.75457e-05
-1.66559e-05
-8.82866e-06
-3.64632e-06
-5.78912e-07
-0.00134951
-0.00156736
-0.00176297
-0.00193494
-0.00208099
-0.00219781
-0.00228216
-0.00233288
-0.00235124
-0.00234036
-0.00230572
-0.00225359
-0.00218893
-0.00211526
-0.00203366
-0.00194136
-0.00183406
-0.0017096
-0.00156894
-0.00141525
-0.00125352
-0.00109042
-0.00093263
-0.000785145
-0.000651011
-0.000532036
-0.000428823
-0.000341059
-0.000267544
-0.000207047
-0.000157861
-0.00011846
-8.70979e-05
-6.2525e-05
-4.34041e-05
-2.88448e-05
-1.79648e-05
-1.00313e-05
-4.64811e-06
-9.90145e-07
)
;

boundaryField
{
    inlet
    {
        type            zeroGradient;
    }
    outlet
    {
        type            fixedValue;
        value           uniform 0;
    }
    lowerWall
    {
        type            zeroGradient;
    }
    upperWall
    {
        type            zeroGradient;
    }
    defaultFaces
    {
        type            empty;
    }
}


// ************************************************************************* //
