/*--------------------------------*- C++ -*----------------------------------*\
| =========                 |                                                 |
| \\      /  F ield         | OpenFOAM: The Open Source CFD Toolbox           |
|  \\    /   O peration     | Version:  2112                                  |
|   \\  /    A nd           | Website:  www.openfoam.com                      |
|    \\/     M anipulation  |                                                 |
\*---------------------------------------------------------------------------*/
FoamFile
{
    version     2.0;
    format      ascii;
    arch        "LSB;label=32;scalar=64";
    class       surfaceScalarField;
    location    "0.3";
    object      phi;
}
// * * * * * * * * * * * * * * * * * * * * * * * * * * * * * * * * * * * * * //

dimensions      [0 3 -1 0 0 0 0];

oriented        oriented;

internalField   nonuniform List<scalar> 
3653
(
9.92444e-07
7.55641e-09
9.79371e-07
1.3073e-08
9.63658e-07
1.57131e-08
9.4873e-07
1.49273e-08
9.31689e-07
1.70413e-08
9.15603e-07
1.60861e-08
8.97192e-07
1.84112e-08
8.80147e-07
1.70443e-08
8.61257e-07
1.88907e-08
8.43471e-07
1.7785e-08
8.23848e-07
1.96234e-08
8.05737e-07
1.81116e-08
7.85776e-07
1.99609e-08
7.67277e-07
1.84989e-08
7.45186e-07
2.20906e-08
7.25417e-07
1.97691e-08
7.03101e-07
2.23163e-08
6.81732e-07
2.1369e-08
6.58526e-07
2.32059e-08
6.32924e-07
2.56015e-08
6.07659e-07
2.52657e-08
5.77189e-07
3.04693e-08
5.5163e-07
2.55594e-08
5.1716e-07
3.44695e-08
4.90411e-07
2.6749e-08
4.51678e-07
3.87333e-08
4.11996e-07
3.96825e-08
3.63876e-07
4.81192e-08
3.02807e-07
6.10691e-08
8.7002e-08
2.15805e-07
1.00296e-06
4.60033e-09
1.00655e-06
9.48054e-09
1.00868e-06
1.35821e-08
1.01053e-06
1.30754e-08
1.01089e-06
1.66866e-08
1.01214e-06
1.48316e-08
1.01122e-06
1.9336e-08
1.01141e-06
1.6853e-08
1.00953e-06
2.07704e-08
1.00838e-06
1.89296e-08
1.00566e-06
2.23453e-08
1.00293e-06
2.08408e-08
9.98326e-07
2.45671e-08
9.96115e-07
2.07099e-08
9.88551e-07
2.96541e-08
9.86479e-07
2.18409e-08
9.75556e-07
3.32393e-08
9.70753e-07
2.61726e-08
9.59834e-07
3.41246e-08
9.51453e-07
3.3983e-08
9.38518e-07
3.82003e-08
9.29337e-07
3.96498e-08
9.06723e-07
4.81737e-08
8.97357e-07
4.38357e-08
8.65739e-07
5.83665e-08
8.47561e-07
5.69113e-08
8.11738e-07
7.55064e-08
7.79935e-07
7.99217e-08
7.19465e-07
1.21539e-07
1.1614e-07
6.90327e-07
1.00177e-06
2.8272e-09
1.00489e-06
6.36564e-09
1.00766e-06
1.08113e-08
1.01006e-06
1.06769e-08
1.01166e-06
1.5083e-08
1.01411e-06
1.23786e-08
1.01509e-06
1.83596e-08
1.01775e-06
1.41946e-08
1.01782e-06
2.07029e-08
1.02013e-06
1.66114e-08
1.02002e-06
2.24599e-08
1.02125e-06
1.96095e-08
1.0209e-06
2.49142e-08
1.02069e-06
2.0928e-08
1.02044e-06
2.98963e-08
1.01924e-06
2.30415e-08
1.01822e-06
3.42617e-08
1.0153e-06
2.90914e-08
1.0135e-06
3.59292e-08
1.00798e-06
3.94966e-08
1.0048e-06
4.13806e-08
9.99103e-07
4.53503e-08
9.88806e-07
5.84704e-08
9.85851e-07
4.67904e-08
9.65135e-07
7.90828e-08
9.57083e-07
6.49638e-08
9.36355e-07
9.62336e-08
9.14781e-07
1.01496e-07
8.91653e-07
1.44667e-07
1.37281e-07
8.70513e-07
1.00081e-06
2.01688e-09
1.00254e-06
4.63468e-09
1.00464e-06
8.7122e-09
1.00644e-06
8.87299e-09
1.00837e-06
1.31565e-08
1.00992e-06
1.0826e-08
1.01174e-06
1.65423e-08
1.01324e-06
1.26939e-08
1.01467e-06
1.92734e-08
1.01626e-06
1.50181e-08
1.0172e-06
2.1526e-08
1.01875e-06
1.80528e-08
1.01881e-06
2.48618e-08
1.01981e-06
1.99268e-08
1.01987e-06
2.9833e-08
1.0203e-06
2.26149e-08
1.0196e-06
3.49582e-08
1.01956e-06
2.91328e-08
1.01634e-06
3.91535e-08
1.01724e-06
3.85966e-08
1.01111e-06
4.75079e-08
1.01184e-06
4.46239e-08
1.00552e-06
6.47866e-08
1.00008e-06
5.22278e-08
9.94709e-07
8.44553e-08
9.83788e-07
7.5885e-08
9.73514e-07
1.06507e-07
9.6427e-07
1.1074e-07
9.55093e-07
1.53843e-07
1.57716e-07
9.34659e-07
1.00045e-06
1.56744e-09
1.0015e-06
3.586e-09
1.00326e-06
6.94913e-09
1.0047e-06
7.43392e-09
1.00672e-06
1.11391e-08
1.00785e-06
9.68942e-09
1.01006e-06
1.43401e-08
1.01083e-06
1.19158e-08
1.0132e-06
1.69075e-08
1.01357e-06
1.46499e-08
1.01603e-06
1.90644e-08
1.01606e-06
1.80216e-08
1.01817e-06
2.2756e-08
1.01787e-06
2.02283e-08
1.01919e-06
2.85114e-08
1.01929e-06
2.25159e-08
1.01929e-06
3.49573e-08
1.01962e-06
2.87961e-08
1.0181e-06
4.06819e-08
1.0181e-06
3.8591e-08
1.01547e-06
5.01345e-08
1.01451e-06
4.55836e-08
1.01105e-06
6.82547e-08
1.00795e-06
5.53262e-08
1.00402e-06
8.83824e-08
9.98371e-07
8.15357e-08
9.93935e-07
1.10944e-07
9.87795e-07
1.1688e-07
9.86383e-07
1.55256e-07
1.59182e-07
9.84916e-07
1.00039e-06
1.17643e-09
1.00109e-06
2.89145e-09
1.00251e-06
5.52266e-09
1.00365e-06
6.29856e-09
1.00554e-06
9.24567e-09
1.00659e-06
8.63776e-09
1.00867e-06
1.2259e-08
1.00963e-06
1.09598e-08
1.01164e-06
1.48929e-08
1.01263e-06
1.36642e-08
1.01442e-06
1.72744e-08
1.0154e-06
1.70419e-08
1.017e-06
2.11512e-08
1.01734e-06
1.9896e-08
1.01914e-06
2.6704e-08
1.01877e-06
2.28889e-08
1.02023e-06
3.34957e-08
1.02005e-06
2.89768e-08
1.01993e-06
4.07993e-08
1.02001e-06
3.85171e-08
1.01929e-06
5.08532e-08
1.01736e-06
4.75143e-08
1.01813e-06
6.74789e-08
1.01377e-06
5.96903e-08
1.0144e-06
8.77492e-08
1.01105e-06
8.48909e-08
1.0102e-06
1.11791e-07
1.00834e-06
1.18737e-07
1.01193e-06
1.51668e-07
1.5998e-07
1.01113e-06
1.0003e-06
8.71662e-10
1.0008e-06
2.40081e-09
1.00201e-06
4.31275e-09
1.00293e-06
5.37324e-09
1.00477e-06
7.40861e-09
1.00567e-06
7.73126e-09
1.00794e-06
9.99333e-09
1.00864e-06
1.02593e-08
1.01114e-06
1.23906e-08
1.01171e-06
1.30957e-08
1.01412e-06
1.48622e-08
1.01486e-06
1.6303e-08
1.0169e-06
1.9117e-08
1.01767e-06
1.91182e-08
1.01923e-06
2.515e-08
1.01994e-06
2.21817e-08
1.02126e-06
3.21699e-08
1.02174e-06
2.84977e-08
1.02264e-06
3.98984e-08
1.02292e-06
3.82377e-08
1.02341e-06
5.03608e-08
1.02286e-06
4.80713e-08
1.02397e-06
6.63615e-08
1.02219e-06
6.14712e-08
1.0242e-06
8.57389e-08
1.02328e-06
8.58142e-08
1.02522e-06
1.09854e-07
1.02717e-06
1.16786e-07
1.03268e-06
1.46158e-07
1.54649e-07
1.03801e-06
1.00026e-06
6.14976e-10
1.00068e-06
1.9738e-09
1.00174e-06
3.25749e-09
1.00265e-06
4.4576e-09
1.00429e-06
5.76889e-09
1.00538e-06
6.64363e-09
1.00739e-06
7.98368e-09
1.00852e-06
9.13304e-09
1.01065e-06
1.02553e-08
1.01183e-06
1.19154e-08
1.01394e-06
1.27599e-08
1.01518e-06
1.50589e-08
1.01734e-06
1.69593e-08
1.01823e-06
1.82228e-08
1.0206e-06
2.27873e-08
1.02104e-06
2.17329e-08
1.02344e-06
2.97739e-08
1.02399e-06
2.7946e-08
1.02594e-06
3.79528e-08
1.02648e-06
3.76927e-08
1.02861e-06
4.82359e-08
1.02825e-06
4.84321e-08
1.03143e-06
6.31816e-08
1.03069e-06
6.22107e-08
1.03448e-06
8.1948e-08
1.03554e-06
8.47514e-08
1.04019e-06
1.05201e-07
1.04356e-06
1.1342e-07
1.05215e-06
1.37569e-07
1.48022e-07
1.05878e-06
1.00023e-06
3.86124e-10
1.00064e-06
1.56066e-09
1.00161e-06
2.28861e-09
1.00252e-06
3.55191e-09
1.0041e-06
4.18287e-09
1.00525e-06
5.50028e-09
1.00726e-06
5.96575e-09
1.00851e-06
7.88659e-09
1.01071e-06
8.05531e-09
1.01211e-06
1.05179e-08
1.01422e-06
1.06475e-08
1.01593e-06
1.33519e-08
1.01794e-06
1.49439e-08
1.01964e-06
1.65226e-08
1.02181e-06
2.06155e-08
1.02313e-06
2.04193e-08
1.02573e-06
2.71724e-08
1.02679e-06
2.68842e-08
1.02956e-06
3.5187e-08
1.03074e-06
3.65055e-08
1.03353e-06
4.54535e-08
1.03466e-06
4.72951e-08
1.03826e-06
5.95838e-08
1.03942e-06
6.10552e-08
1.04422e-06
7.71421e-08
1.04718e-06
8.17913e-08
1.05325e-06
9.91308e-08
1.05901e-06
1.07662e-07
1.0687e-06
1.2788e-07
1.38501e-07
1.07822e-06
1.00021e-06
1.80474e-10
1.00065e-06
1.11441e-09
1.00156e-06
1.37664e-09
1.00256e-06
2.55743e-09
1.00406e-06
2.68316e-09
1.0054e-06
4.16053e-09
1.00731e-06
4.05099e-09
1.00887e-06
6.32806e-09
1.01098e-06
5.94316e-09
1.01272e-06
8.77851e-09
1.01491e-06
8.4617e-09
1.01683e-06
1.14254e-08
1.01922e-06
1.25557e-08
1.02104e-06
1.47063e-08
1.02376e-06
1.78905e-08
1.02533e-06
1.88548e-08
1.02842e-06
2.40817e-08
1.03008e-06
2.52272e-08
1.03341e-06
3.18543e-08
1.03526e-06
3.46533e-08
1.03895e-06
4.17633e-08
1.0409e-06
4.5348e-08
1.04541e-06
5.50701e-08
1.04795e-06
5.852e-08
1.05367e-06
7.1422e-08
1.0581e-06
7.73584e-08
1.06565e-06
9.15806e-08
1.07263e-06
1.00679e-07
1.08352e-06
1.16992e-07
1.27872e-07
1.09415e-06
1.0002e-06
-1.69146e-11
1.0007e-06
6.16343e-10
1.00161e-06
4.63329e-10
1.00271e-06
1.46033e-09
1.00421e-06
1.17959e-09
1.00572e-06
2.65301e-09
1.00763e-06
2.13625e-09
1.00944e-06
4.51782e-09
1.01155e-06
3.83227e-09
1.01363e-06
6.70271e-09
1.01582e-06
6.2692e-09
1.01818e-06
9.0668e-09
1.02061e-06
1.01252e-08
1.02297e-06
1.23514e-08
1.02581e-06
1.50455e-08
1.02796e-06
1.67028e-08
1.03134e-06
2.07048e-08
1.03363e-06
2.29374e-08
1.03736e-06
2.81234e-08
1.04014e-06
3.18754e-08
1.04414e-06
3.77622e-08
1.04738e-06
4.21093e-08
1.05227e-06
5.01801e-08
1.05615e-06
5.46397e-08
1.06253e-06
6.50347e-08
1.06829e-06
7.15987e-08
1.07653e-06
8.33457e-08
1.08492e-06
9.22909e-08
1.09628e-06
1.05626e-07
1.15885e-07
1.10827e-06
1.00019e-06
-2.10253e-10
1.00078e-06
3.36652e-11
1.00172e-06
-4.81232e-10
1.00296e-06
2.19485e-10
1.00451e-06
-3.66625e-10
1.0062e-06
9.57534e-10
1.00816e-06
1.76875e-10
1.0102e-06
2.48235e-09
1.0124e-06
1.63229e-09
1.0147e-06
4.4025e-09
1.01709e-06
3.87447e-09
1.01965e-06
6.51189e-09
1.02241e-06
7.36064e-09
1.02501e-06
9.75279e-09
1.02818e-06
1.18777e-08
1.0308e-06
1.40813e-08
1.03443e-06
1.7078e-08
1.03739e-06
1.99705e-08
1.04148e-06
2.4033e-08
1.04498e-06
2.83758e-08
1.04954e-06
3.3208e-08
1.05363e-06
3.80215e-08
1.05906e-06
4.47415e-08
1.06401e-06
4.96924e-08
1.07094e-06
5.81105e-08
1.07764e-06
6.48971e-08
1.08655e-06
7.44365e-08
1.09579e-06
8.30447e-08
1.10756e-06
9.38558e-08
1.03429e-07
1.12002e-06
1.00022e-06
-4.31487e-10
1.0009e-06
-6.45948e-10
1.00196e-06
-1.54416e-09
1.00338e-06
-1.19978e-09
1.00505e-06
-2.0327e-09
1.00695e-06
-9.4664e-10
1.00898e-06
-1.84785e-09
1.01125e-06
2.08652e-10
1.01352e-06
-6.35626e-10
1.01611e-06
1.81669e-09
1.01861e-06
1.36948e-09
1.02149e-06
3.63426e-09
1.02443e-06
4.4213e-09
1.0274e-06
6.77957e-09
1.03077e-06
8.50471e-09
1.03389e-06
1.09662e-08
1.03776e-06
1.32109e-08
1.04134e-06
1.63904e-08
1.04568e-06
1.9688e-08
1.04997e-06
2.40822e-08
1.05487e-06
2.83107e-08
1.05981e-06
3.30834e-08
1.0657e-06
3.88538e-08
1.07148e-06
4.39073e-08
1.0788e-06
5.07939e-08
1.08631e-06
5.73857e-08
1.09549e-06
6.52599e-08
1.10541e-06
7.31227e-08
1.11724e-06
8.20203e-08
9.04274e-08
1.13025e-06
1.00024e-06
-6.73095e-10
1.00105e-06
-1.45478e-09
1.00225e-06
-2.74236e-09
1.00389e-06
-2.84263e-09
1.0057e-06
-3.83947e-09
1.00782e-06
-3.06361e-09
1.00995e-06
-3.98285e-09
1.01247e-06
-2.3082e-09
1.0149e-06
-3.06776e-09
1.01769e-06
-9.72264e-10
1.02045e-06
-1.39064e-09
1.02356e-06
5.26043e-10
1.02677e-06
1.20968e-09
1.03002e-06
3.5246e-09
1.03364e-06
4.88412e-09
1.03722e-06
7.39359e-09
1.04134e-06
9.08845e-09
1.04544e-06
1.22876e-08
1.05013e-06
1.49962e-08
1.05499e-06
1.92269e-08
1.06036e-06
2.29414e-08
1.0659e-06
2.75456e-08
1.07223e-06
3.2524e-08
1.07866e-06
3.74753e-08
1.08632e-06
4.3132e-08
1.09436e-06
4.93458e-08
1.10378e-06
5.58395e-08
1.11406e-06
6.28403e-08
1.12594e-06
7.01448e-08
7.75423e-08
1.13882e-06
1.00036e-06
-1.03497e-09
1.00142e-06
-2.51197e-09
1.00291e-06
-4.23571e-09
1.00483e-06
-4.7638e-09
1.00687e-06
-5.87361e-09
1.00918e-06
-5.37754e-09
1.0115e-06
-6.30283e-09
1.01418e-06
-4.98952e-09
1.01681e-06
-5.69071e-09
1.01979e-06
-3.95238e-09
1.02276e-06
-4.3688e-09
1.02608e-06
-2.79272e-09
1.02946e-06
-2.1697e-09
1.03299e-06
-1.12855e-12
1.03683e-06
1.03902e-09
1.04085e-06
3.37421e-09
1.04519e-06
4.74993e-09
1.04973e-06
7.74945e-09
1.05467e-06
1.0054e-08
1.06006e-06
1.38403e-08
1.06584e-06
1.71641e-08
1.07196e-06
2.14192e-08
1.07873e-06
2.57547e-08
1.08572e-06
3.04817e-08
1.09359e-06
3.52671e-08
1.10198e-06
4.096e-08
1.11136e-06
4.64543e-08
1.12169e-06
5.25121e-08
1.13331e-06
5.8527e-08
6.46325e-08
1.14622e-06
1.00044e-06
-1.47552e-09
1.00186e-06
-3.93015e-09
1.00376e-06
-6.14149e-09
1.00605e-06
-7.05011e-09
1.00832e-06
-8.14571e-09
1.01087e-06
-7.92055e-09
1.01335e-06
-8.79184e-09
1.01626e-06
-7.89658e-09
1.01907e-06
-8.50306e-09
1.0223e-06
-7.17774e-09
1.02552e-06
-7.58638e-09
1.02907e-06
-6.34248e-09
1.03263e-06
-5.72914e-09
1.03647e-06
-3.8405e-09
1.04056e-06
-3.0521e-09
1.04495e-06
-1.02271e-09
1.04962e-06
8.0669e-11
1.05453e-06
2.84377e-09
1.05979e-06
4.79007e-09
1.06554e-06
8.09544e-09
1.07167e-06
1.10301e-08
1.07824e-06
1.48554e-08
1.0854e-06
1.85855e-08
1.09288e-06
2.30034e-08
1.10099e-06
2.7155e-08
1.10958e-06
3.23718e-08
1.11894e-06
3.71004e-08
1.12916e-06
4.22867e-08
1.14047e-06
4.72171e-08
5.23787e-08
1.15273e-06
1.00086e-06
-2.33838e-09
1.0029e-06
-5.96975e-09
1.00529e-06
-8.5279e-09
1.00788e-06
-9.63952e-09
1.01036e-06
-1.0629e-08
1.01313e-06
-1.06887e-08
1.01584e-06
-1.15059e-08
1.01895e-06
-1.10016e-08
1.02199e-06
-1.15415e-08
1.02544e-06
-1.06298e-08
1.02893e-06
-1.10736e-08
1.03263e-06
-1.00472e-08
1.0363e-06
-9.39403e-09
1.04033e-06
-7.87138e-09
1.04472e-06
-7.44739e-09
1.0495e-06
-5.79986e-09
1.0543e-06
-4.72273e-09
1.05943e-06
-2.28325e-09
1.06482e-06
-6.00552e-10
1.07086e-06
2.06055e-09
1.07741e-06
4.47685e-09
1.08461e-06
7.65344e-09
1.09235e-06
1.08475e-08
1.10036e-06
1.49945e-08
1.1086e-06
1.89138e-08
1.1171e-06
2.38715e-08
1.12602e-06
2.81824e-08
1.13565e-06
3.26492e-08
1.14626e-06
3.6611e-08
4.04474e-08
1.15819e-06
1.00183e-06
-4.17187e-09
1.00527e-06
-9.40457e-09
1.00851e-06
-1.17745e-08
1.01146e-06
-1.2581e-08
1.01417e-06
-1.33444e-08
1.01724e-06
-1.37544e-08
1.02019e-06
-1.44632e-08
1.02348e-06
-1.42889e-08
1.02653e-06
-1.45901e-08
1.02997e-06
-1.4074e-08
1.03335e-06
-1.44504e-08
1.03695e-06
-1.36413e-08
1.04036e-06
-1.28071e-08
1.04425e-06
-1.17666e-08
1.04842e-06
-1.16132e-08
1.0531e-06
-1.0476e-08
1.0578e-06
-9.43003e-09
1.06286e-06
-7.34335e-09
1.06814e-06
-5.87631e-09
1.07394e-06
-3.74495e-09
1.08034e-06
-1.91368e-09
1.08763e-06
3.59366e-10
1.09554e-06
2.94037e-09
1.1039e-06
6.62613e-09
1.11247e-06
1.03528e-08
1.12126e-06
1.50764e-08
1.13038e-06
1.90623e-08
1.14004e-06
2.29919e-08
1.15045e-06
2.61955e-08
2.91746e-08
1.16173e-06
1.00304e-06
-7.20771e-09
1.00686e-06
-1.32244e-08
1.00971e-06
-1.46299e-08
1.01183e-06
-1.47045e-08
1.01369e-06
-1.51963e-08
1.0155e-06
-1.55717e-08
1.01688e-06
-1.58436e-08
1.01826e-06
-1.56608e-08
1.01923e-06
-1.5569e-08
1.0204e-06
-1.52374e-08
1.02112e-06
-1.51673e-08
1.02181e-06
-1.43397e-08
1.0225e-06
-1.34962e-08
1.02384e-06
-1.31054e-08
1.02528e-06
-1.30527e-08
1.0269e-06
-1.20968e-08
1.02831e-06
-1.08374e-08
1.03031e-06
-9.34364e-09
1.0329e-06
-8.46252e-09
1.03653e-06
-7.38118e-09
1.04108e-06
-6.46532e-09
1.0465e-06
-5.0557e-09
1.05256e-06
-3.12166e-09
1.0594e-06
-2.11843e-10
1.06701e-06
2.74656e-09
1.07594e-06
6.14534e-09
1.0861e-06
8.90102e-09
1.09767e-06
1.14209e-08
1.11064e-06
1.32232e-08
1.46707e-08
1.12514e-06
9.92792e-07
9.79568e-07
9.64938e-07
9.50234e-07
9.35037e-07
9.19465e-07
9.03622e-07
8.87961e-07
8.72392e-07
8.57155e-07
8.41987e-07
8.27648e-07
8.14151e-07
8.01046e-07
7.87993e-07
7.75897e-07
7.65059e-07
7.55715e-07
7.47253e-07
7.39872e-07
7.33406e-07
7.28351e-07
7.25229e-07
7.25017e-07
7.27764e-07
7.33909e-07
7.4281e-07
7.54231e-07
7.67454e-07
7.82125e-07
3.21201e-07
-1.05396e-07
4.33007e-07
-1.11806e-07
5.06312e-07
-7.33046e-08
5.62362e-07
-5.60501e-08
6.10085e-07
-4.77229e-08
6.34418e-07
-2.43327e-08
6.86537e-07
-5.21197e-08
7.35042e-07
-4.85041e-08
7.91179e-07
-5.61376e-08
-1.11812e-07
9.02991e-07
7.37303e-07
-1.52372e-07
7.69111e-07
-1.43614e-07
8.14001e-07
-1.18195e-07
8.49347e-07
-9.13962e-08
8.77595e-07
-7.59707e-08
8.99138e-07
-4.58756e-08
9.31395e-07
-8.43771e-08
9.76321e-07
-9.34296e-08
1.03154e-06
-1.1136e-07
-1.35548e-07
1.05528e-06
8.81627e-07
-1.63487e-07
8.86151e-07
-1.48138e-07
8.97908e-07
-1.29953e-07
9.18573e-07
-1.12061e-07
9.22805e-07
-8.02036e-08
9.60886e-07
-8.39565e-08
9.64805e-07
-8.82954e-08
9.93195e-07
-1.2182e-07
1.029e-06
-1.47167e-07
-2.07224e-07
1.10068e-06
9.41401e-07
-1.70229e-07
9.46559e-07
-1.53296e-07
9.43463e-07
-1.26856e-07
9.49819e-07
-1.18417e-07
9.66603e-07
-9.69875e-08
9.95728e-07
-1.13082e-07
1.01688e-06
-1.09448e-07
1.01877e-06
-1.23705e-07
1.03279e-06
-1.61189e-07
-2.33993e-07
1.05956e-06
9.74877e-07
-1.60189e-07
9.75405e-07
-1.53824e-07
9.77645e-07
-1.29096e-07
9.87917e-07
-1.28689e-07
9.9473e-07
-1.03801e-07
1.00777e-06
-1.26125e-07
1.01111e-06
-1.12785e-07
1.03238e-06
-1.44976e-07
1.04884e-06
-1.77651e-07
-2.34156e-07
1.04901e-06
1.00812e-06
-1.57173e-07
1.00479e-06
-1.50494e-07
1.00371e-06
-1.28023e-07
1.00681e-06
-1.31785e-07
1.01597e-06
-1.12963e-07
1.0229e-06
-1.33058e-07
1.03595e-06
-1.25827e-07
1.0463e-06
-1.55332e-07
1.04514e-06
-1.76488e-07
-2.23726e-07
1.03471e-06
1.03097e-06
-1.50131e-07
1.0273e-06
-1.46831e-07
1.0265e-06
-1.27221e-07
1.02848e-06
-1.33767e-07
1.03225e-06
-1.16726e-07
1.03578e-06
-1.36592e-07
1.04006e-06
-1.30106e-07
1.0438e-06
-1.59071e-07
1.04387e-06
-1.76558e-07
-2.20113e-07
1.04025e-06
1.0527e-06
-1.44054e-07
1.0473e-06
-1.41433e-07
1.04526e-06
-1.25179e-07
1.04313e-06
-1.31641e-07
1.0457e-06
-1.19292e-07
1.04555e-06
-1.36438e-07
1.04911e-06
-1.33667e-07
1.04878e-06
-1.58737e-07
1.04541e-06
-1.73189e-07
-2.11007e-07
1.0363e-06
1.07063e-06
-1.36463e-07
1.06397e-06
-1.34777e-07
1.06026e-06
-1.21465e-07
1.0568e-06
-1.28176e-07
1.05612e-06
-1.1862e-07
1.05292e-06
-1.33237e-07
1.05155e-06
-1.32292e-07
1.04841e-06
-1.55598e-07
1.04348e-06
-1.68259e-07
-2.00265e-07
1.03274e-06
1.086e-06
-1.28317e-07
1.07812e-06
-1.2689e-07
1.07308e-06
-1.16426e-07
1.06691e-06
-1.22007e-07
1.06393e-06
-1.15642e-07
1.05874e-06
-1.28051e-07
1.05559e-06
-1.29132e-07
1.04854e-06
-1.48553e-07
1.04031e-06
-1.60024e-07
-1.88953e-07
1.02899e-06
1.09894e-06
-1.1899e-07
1.08992e-06
-1.17866e-07
1.08312e-06
-1.09625e-07
1.07575e-06
-1.14639e-07
1.0703e-06
-1.10191e-07
1.06266e-06
-1.20407e-07
1.05623e-06
-1.22703e-07
1.04794e-06
-1.40271e-07
1.03834e-06
-1.50415e-07
-1.74862e-07
1.02424e-06
1.10986e-06
-1.08833e-07
1.09978e-06
-1.07785e-07
1.09154e-06
-1.01385e-07
1.08227e-06
-1.05363e-07
1.07487e-06
-1.028e-07
1.06595e-06
-1.11485e-07
1.05754e-06
-1.14286e-07
1.04643e-06
-1.29168e-07
1.03459e-06
-1.38567e-07
-1.60004e-07
1.01973e-06
1.11899e-06
-9.75747e-08
1.10785e-06
-9.66436e-08
1.09813e-06
-9.16641e-08
1.08777e-06
-9.50062e-08
1.07841e-06
-9.34438e-08
1.06767e-06
-1.00741e-07
1.05729e-06
-1.03907e-07
1.04506e-06
-1.16935e-07
1.03173e-06
-1.25241e-07
-1.43413e-07
1.01514e-06
1.1267e-06
-8.54501e-08
1.11458e-06
-8.4525e-08
1.10357e-06
-8.06549e-08
1.09184e-06
-8.32798e-08
1.08098e-06
-8.25762e-08
1.06904e-06
-8.88039e-08
1.05712e-06
-9.19917e-08
1.04317e-06
-1.02982e-07
1.02842e-06
-1.1049e-07
-1.25942e-07
1.01095e-06
1.13304e-06
-7.22691e-08
1.11992e-06
-7.14096e-08
1.10771e-06
-6.844e-08
1.09497e-06
-7.05454e-08
1.08273e-06
-7.03368e-08
1.06953e-06
-7.56015e-08
1.0563e-06
-7.87596e-08
1.04135e-06
-8.80341e-08
1.02548e-06
-9.46254e-08
-1.07472e-07
1.00701e-06
1.13864e-06
-5.81873e-08
1.12453e-06
-5.72995e-08
1.11123e-06
-5.51343e-08
1.09744e-06
-5.67558e-08
1.08409e-06
-5.69889e-08
1.06986e-06
-6.13713e-08
1.05554e-06
-6.44348e-08
1.03952e-06
-7.20211e-08
1.02271e-06
-7.78095e-08
-8.82657e-08
1.0035e-06
1.14284e-06
-4.28364e-08
1.12765e-06
-4.21066e-08
1.11333e-06
-4.08149e-08
1.09863e-06
-4.20562e-08
1.08436e-06
-4.27203e-08
1.0692e-06
-4.62131e-08
1.05395e-06
-4.91826e-08
1.03708e-06
-5.51546e-08
1.01946e-06
-6.01811e-08
-6.82774e-08
9.99467e-07
1.14494e-06
-2.60466e-08
1.12835e-06
-2.55167e-08
1.11271e-06
-2.51814e-08
1.0968e-06
-2.61418e-08
1.08136e-06
-2.72774e-08
1.06499e-06
-2.98444e-08
1.04846e-06
-3.26582e-08
1.03023e-06
-3.69233e-08
1.01117e-06
-4.11235e-08
-4.67537e-08
9.8965e-07
1.10766e-06
-8.56185e-09
1.0908e-06
-8.65513e-09
1.07454e-06
-8.92573e-09
1.05803e-06
-9.63372e-09
1.04147e-06
-1.07165e-08
1.02387e-06
-1.22422e-08
1.00544e-06
-1.42227e-08
9.8509e-07
-1.65773e-08
9.63228e-07
-1.92618e-08
-2.21178e-08
9.38592e-07
7.73563e-07
7.64908e-07
7.55982e-07
7.46349e-07
7.35632e-07
7.2339e-07
7.09167e-07
6.9259e-07
6.73328e-07
6.5121e-07
5.73842e-08
-5.73842e-08
3.73695e-08
2.00147e-08
-3.51333e-08
7.25027e-08
-2.34586e-07
1.99453e-07
-5.05422e-07
2.70836e-07
-7.46041e-07
2.40619e-07
-9.21127e-07
1.75085e-07
-9.87711e-07
6.6584e-08
-9.73754e-07
-1.39569e-08
-8.98395e-07
-7.53585e-08
-7.87983e-07
-1.10412e-07
-6.42937e-07
-1.45046e-07
-4.79784e-07
-1.63152e-07
-3.05863e-07
-1.73922e-07
-1.35394e-07
-1.70468e-07
1.38532e-08
-1.49248e-07
1.42646e-07
-1.28793e-07
2.46465e-07
-1.03819e-07
3.26505e-07
-8.00403e-08
3.84782e-07
-5.82766e-08
4.23849e-07
-3.90672e-08
4.46322e-07
-2.2473e-08
4.55233e-07
-8.91118e-09
4.53967e-07
1.2669e-09
4.45961e-07
8.00597e-09
4.34013e-07
1.19477e-08
4.20445e-07
1.35682e-08
4.06836e-07
1.36089e-08
3.94154e-07
1.26816e-08
3.82974e-07
1.11801e-08
3.73429e-07
9.54477e-09
3.65552e-07
7.87708e-09
3.59102e-07
6.44972e-09
3.53978e-07
5.12425e-09
3.49824e-07
4.15385e-09
3.46614e-07
3.21059e-09
3.43972e-07
2.64178e-09
3.42013e-07
1.95944e-09
3.40308e-07
1.70425e-09
1.19002e-09
5.98636e-08
-1.17248e-07
2.50472e-08
5.48311e-08
-1.78208e-07
2.75758e-07
-4.44772e-07
4.66017e-07
-6.5352e-07
4.79584e-07
-8.21339e-07
4.08439e-07
-9.26693e-07
2.80439e-07
-9.54432e-07
9.43234e-08
-9.12768e-07
-5.56206e-08
-8.21075e-07
-1.67052e-07
-7.01834e-07
-2.29653e-07
-5.56467e-07
-2.90414e-07
-3.91784e-07
-3.27836e-07
-2.1734e-07
-3.48365e-07
-4.9342e-08
-3.38466e-07
1.03028e-07
-3.01617e-07
2.34005e-07
-2.5977e-07
3.43551e-07
-2.13366e-07
4.32461e-07
-1.68949e-07
5.03068e-07
-1.28884e-07
5.57637e-07
-9.36363e-08
5.97671e-07
-6.2507e-08
6.25028e-07
-3.62683e-08
6.42506e-07
-1.62109e-08
6.53275e-07
-2.76292e-09
6.59938e-07
5.28418e-09
6.6423e-07
9.27622e-09
6.67001e-07
1.08383e-08
6.68638e-07
1.10448e-08
6.69414e-07
1.04037e-08
6.6941e-07
9.54912e-09
6.68846e-07
8.44148e-09
6.67763e-07
7.53219e-09
6.66446e-07
6.44083e-09
6.64889e-07
5.71177e-09
6.63401e-07
4.69813e-09
6.6187e-07
4.17326e-09
6.60601e-07
3.22748e-09
6.59363e-07
2.94229e-09
2.10036e-09
-6.15623e-08
-5.56855e-08
-1.99961e-07
1.9323e-07
-3.41473e-07
4.1727e-07
-4.5797e-07
5.82514e-07
-5.60204e-07
5.81818e-07
-6.49658e-07
4.97893e-07
-7.06098e-07
3.36878e-07
-7.08332e-07
9.65579e-08
-6.58521e-07
-1.05432e-07
-5.75136e-07
-2.50437e-07
-4.7022e-07
-3.34569e-07
-3.50324e-07
-4.1031e-07
-2.10037e-07
-4.68123e-07
-5.74203e-08
-5.00982e-07
8.6565e-08
-4.82451e-07
2.14148e-07
-4.292e-07
3.20551e-07
-3.66173e-07
4.10233e-07
-3.03048e-07
4.82876e-07
-2.41592e-07
5.40813e-07
-1.86821e-07
5.89066e-07
-1.4189e-07
6.29425e-07
-1.02865e-07
6.60385e-07
-6.72285e-08
6.81097e-07
-3.69232e-08
6.93595e-07
-1.5261e-08
7.01513e-07
-2.63345e-09
7.07663e-07
3.1258e-09
7.13486e-07
5.01579e-09
7.19281e-07
5.24947e-09
7.24832e-07
4.85289e-09
7.29772e-07
4.6089e-09
7.33897e-07
4.31624e-09
7.3705e-07
4.37983e-09
7.39323e-07
4.16728e-09
7.4077e-07
4.26507e-09
7.41644e-07
3.82399e-09
7.42031e-07
3.7858e-09
7.42189e-07
3.0696e-09
7.42143e-07
2.98843e-09
2.1558e-09
-4.38611e-08
-1.18245e-08
-1.18488e-07
2.67857e-07
-1.83654e-07
4.82436e-07
-2.79802e-07
6.78662e-07
-3.40131e-07
6.42147e-07
-3.91858e-07
5.49619e-07
-4.15112e-07
3.60132e-07
-4.11548e-07
9.29936e-08
-3.7023e-07
-1.4675e-07
-3.05399e-07
-3.15268e-07
-2.2787e-07
-4.12097e-07
-1.31793e-07
-5.06387e-07
-1.24691e-08
-5.87448e-07
1.14288e-07
-6.27738e-07
2.41328e-07
-6.09491e-07
3.45203e-07
-5.33075e-07
4.21921e-07
-4.42892e-07
4.86344e-07
-3.67471e-07
5.4137e-07
-2.96618e-07
5.80811e-07
-2.26262e-07
6.09165e-07
-1.70243e-07
6.36744e-07
-1.30445e-07
6.66437e-07
-9.69215e-08
6.93448e-07
-6.39335e-08
7.12957e-07
-3.47705e-08
7.24249e-07
-1.39251e-08
7.29827e-07
-2.45218e-09
7.32845e-07
1.99722e-09
7.35461e-07
2.63365e-09
7.38495e-07
1.81954e-09
7.41893e-07
1.21057e-09
7.45296e-07
9.13568e-10
7.48356e-07
1.31932e-09
7.5087e-07
1.65321e-09
7.52773e-07
2.36248e-09
7.54147e-07
2.44966e-09
7.55065e-07
2.86745e-09
7.55688e-07
2.44689e-09
7.56109e-07
2.56765e-09
1.80761e-09
-4.91978e-08
3.73734e-08
-1.45028e-07
3.63687e-07
-1.36422e-07
4.7383e-07
-1.0958e-07
6.5182e-07
-9.19673e-08
6.24534e-07
-9.14964e-08
5.49148e-07
-8.3193e-08
3.51829e-07
-6.70055e-08
7.68061e-08
-4.02584e-08
-1.73497e-07
-5.34322e-09
-3.50183e-07
3.93096e-08
-4.5675e-07
9.77403e-08
-5.64817e-07
1.82416e-07
-6.72123e-07
2.83615e-07
-7.28938e-07
3.80533e-07
-7.0641e-07
4.63387e-07
-6.15928e-07
5.14011e-07
-4.93516e-07
5.44739e-07
-3.98198e-07
5.80696e-07
-3.32575e-07
6.15134e-07
-2.607e-07
6.32064e-07
-1.87174e-07
6.37176e-07
-1.35556e-07
6.46161e-07
-1.05907e-07
6.65239e-07
-8.30112e-08
6.89734e-07
-5.92653e-08
7.1219e-07
-3.63812e-08
7.28319e-07
-1.8581e-08
7.37894e-07
-7.57843e-09
7.42927e-07
-2.39942e-09
7.457e-07
-9.53093e-10
7.47772e-07
-8.61145e-10
7.49748e-07
-1.06321e-09
7.51692e-07
-6.24011e-10
7.53465e-07
-1.20325e-10
7.54919e-07
9.08798e-10
7.56028e-07
1.34065e-09
7.56791e-07
2.10441e-09
7.57343e-07
1.89465e-09
7.57712e-07
2.19853e-09
1.46992e-09
2.12539e-08
1.61195e-08
4.86705e-08
3.3627e-07
1.24434e-07
3.98067e-07
1.44071e-07
6.32183e-07
1.77633e-07
5.90972e-07
2.20834e-07
5.05948e-07
2.61875e-07
3.10788e-07
2.89032e-07
4.96496e-08
3.18286e-07
-2.02751e-07
3.47789e-07
-3.79686e-07
3.74526e-07
-4.83487e-07
4.00633e-07
-5.90924e-07
4.45121e-07
-7.16611e-07
4.98417e-07
-7.82234e-07
5.38867e-07
-7.4686e-07
5.74854e-07
-6.51915e-07
6.04153e-07
-5.22816e-07
6.06214e-07
-4.0026e-07
6.03409e-07
-3.2977e-07
6.21764e-07
-2.79055e-07
6.45526e-07
-2.10936e-07
6.52394e-07
-1.42424e-07
6.4613e-07
-9.96428e-08
6.43586e-07
-8.04673e-08
6.53966e-07
-6.96449e-08
6.74797e-07
-5.72126e-08
6.98752e-07
-4.25355e-08
7.19663e-07
-2.84895e-08
7.34786e-07
-1.75221e-08
7.44209e-07
-1.03767e-08
7.49505e-07
-6.15706e-09
7.52365e-07
-3.92346e-09
7.54015e-07
-2.27383e-09
7.55111e-07
-1.21558e-09
7.55932e-07
8.75699e-11
7.56575e-07
6.97749e-10
7.57056e-07
1.62298e-09
7.5746e-07
1.49074e-09
7.57776e-07
1.8823e-09
1.11055e-09
-1.76429e-07
1.92548e-07
3.08318e-08
1.2901e-07
2.04318e-07
2.24581e-07
3.98573e-07
4.37928e-07
5.10008e-07
4.79537e-07
5.87903e-07
4.28052e-07
6.33351e-07
2.6534e-07
6.51381e-07
3.16196e-08
6.62629e-07
-2.13999e-07
6.66928e-07
-3.83985e-07
6.69446e-07
-4.86006e-07
6.77736e-07
-5.99214e-07
6.87097e-07
-7.25972e-07
6.97893e-07
-7.9303e-07
6.92275e-07
-7.41242e-07
6.70212e-07
-6.29852e-07
6.66901e-07
-5.19505e-07
6.69363e-07
-4.02721e-07
6.50669e-07
-3.11077e-07
6.33191e-07
-2.61577e-07
6.39158e-07
-2.16903e-07
6.54518e-07
-1.57784e-07
6.59622e-07
-1.04747e-07
6.54329e-07
-7.51742e-08
6.50367e-07
-6.56828e-08
6.5595e-07
-6.27958e-08
6.71248e-07
-5.78334e-08
6.91742e-07
-4.89831e-08
7.12339e-07
-3.81194e-08
7.2948e-07
-2.75177e-08
7.41778e-07
-1.8455e-08
7.49501e-07
-1.16466e-08
7.53812e-07
-6.58419e-09
7.55975e-07
-3.3788e-09
7.56934e-07
-8.71818e-10
7.57334e-07
2.97764e-10
7.57461e-07
1.49665e-09
7.57542e-07
1.40939e-09
7.57568e-07
1.85573e-09
9.58076e-10
6.82218e-07
4.13322e-07
5.14288e-07
2.96939e-07
4.44054e-07
2.94815e-07
5.3179e-07
3.50192e-07
6.57367e-07
3.5396e-07
7.85206e-07
3.00213e-07
8.74489e-07
1.76057e-07
9.13961e-07
-7.85199e-09
9.19436e-07
-2.19474e-07
9.15881e-07
-3.80431e-07
9.14649e-07
-4.84774e-07
9.12448e-07
-5.97012e-07
8.90204e-07
-7.03728e-07
8.46996e-07
-7.49822e-07
8.01993e-07
-6.96239e-07
7.5005e-07
-5.77909e-07
7.07886e-07
-4.7734e-07
7.02612e-07
-3.97447e-07
7.08825e-07
-3.1729e-07
6.99696e-07
-2.52447e-07
6.89055e-07
-2.06262e-07
6.93647e-07
-1.62376e-07
7.0809e-07
-1.19191e-07
7.19699e-07
-8.67824e-08
7.23658e-07
-6.96424e-08
7.23143e-07
-6.22805e-08
7.2377e-07
-5.8461e-08
7.29176e-07
-5.4389e-08
7.39791e-07
-4.8734e-08
7.53426e-07
-4.11527e-08
7.67112e-07
-3.21415e-08
7.78498e-07
-2.30322e-08
7.86551e-07
-1.46371e-08
7.91396e-07
-8.22379e-09
7.93869e-07
-3.3454e-09
7.94951e-07
-7.83808e-10
7.95292e-07
1.15557e-09
7.9542e-07
1.28181e-09
7.95452e-07
1.82316e-09
7.63227e-10
1.04513e-06
4.23467e-07
1.00311e-06
3.38965e-07
9.44326e-07
3.53597e-07
9.18398e-07
3.76119e-07
9.36049e-07
3.36309e-07
9.96771e-07
2.39491e-07
1.05506e-06
1.1777e-07
1.08387e-06
-3.6665e-08
1.10051e-06
-2.36113e-07
1.10562e-06
-3.85543e-07
1.10834e-06
-4.87494e-07
1.10269e-06
-5.91358e-07
1.05463e-06
-6.55668e-07
9.57125e-07
-6.52321e-07
8.5555e-07
-5.94664e-07
7.86285e-07
-5.08644e-07
7.39441e-07
-4.30496e-07
7.11063e-07
-3.69069e-07
7.06055e-07
-3.12283e-07
7.1235e-07
-2.58742e-07
7.16998e-07
-2.1091e-07
7.20612e-07
-1.65991e-07
7.28853e-07
-1.27431e-07
7.43356e-07
-1.01286e-07
7.60754e-07
-8.70406e-08
7.74966e-07
-7.64917e-08
7.81399e-07
-6.48947e-08
7.80223e-07
-5.32125e-08
7.75755e-07
-4.42659e-08
7.72752e-07
-3.81502e-08
7.7349e-07
-3.28796e-08
7.77412e-07
-2.69541e-08
7.82693e-07
-1.99174e-08
7.87649e-07
-1.318e-08
7.91303e-07
-6.99934e-09
7.93459e-07
-2.93997e-09
7.94391e-07
2.23157e-10
7.94717e-07
9.56232e-10
7.94667e-07
1.87311e-09
7.72814e-10
1.11043e-06
4.13717e-07
1.10576e-06
3.43629e-07
1.14283e-06
3.16527e-07
1.17817e-06
3.40787e-07
1.21203e-06
3.02441e-07
1.2558e-06
1.95727e-07
1.28338e-06
9.01892e-08
1.28985e-06
-4.31356e-08
1.28587e-06
-2.32128e-07
1.27598e-06
-3.75658e-07
1.24359e-06
-4.55104e-07
1.18449e-06
-5.32255e-07
1.10003e-06
-5.71211e-07
9.92144e-07
-5.44434e-07
8.88438e-07
-4.90958e-07
8.23283e-07
-4.43489e-07
7.97058e-07
-4.04271e-07
7.84111e-07
-3.56121e-07
7.67009e-07
-2.95181e-07
7.51216e-07
-2.42949e-07
7.49292e-07
-2.08986e-07
7.59734e-07
-1.76433e-07
7.69663e-07
-1.3736e-07
7.72118e-07
-1.03741e-07
7.72494e-07
-8.74167e-08
7.78708e-07
-8.27052e-08
7.91355e-07
-7.75418e-08
8.04293e-07
-6.61507e-08
8.11307e-07
-5.12797e-08
8.10637e-07
-3.74802e-08
8.04947e-07
-2.71902e-08
7.98346e-07
-2.03525e-08
7.93603e-07
-1.51742e-08
7.91349e-07
-1.09261e-08
7.90945e-07
-6.59596e-09
7.91586e-07
-3.58099e-09
7.9255e-07
-7.40573e-10
7.93384e-07
1.22056e-10
7.93983e-07
1.27492e-09
3.44709e-10
1.09382e-06
3.79454e-07
1.12038e-06
3.17074e-07
1.17945e-06
2.57454e-07
1.24143e-06
2.78809e-07
1.29633e-06
2.47534e-07
1.33527e-06
1.5679e-07
1.35929e-06
6.61671e-08
1.36073e-06
-4.45708e-08
1.32475e-06
-1.96148e-07
1.28648e-06
-3.37389e-07
1.23936e-06
-4.07983e-07
1.14844e-06
-4.41341e-07
1.04691e-06
-4.69676e-07
9.71584e-07
-4.69108e-07
9.22498e-07
-4.41873e-07
8.84862e-07
-4.05853e-07
8.51542e-07
-3.70951e-07
8.30589e-07
-3.35168e-07
8.18977e-07
-2.83568e-07
8.01278e-07
-2.2525e-07
7.81374e-07
-1.89082e-07