/*--------------------------------*- C++ -*----------------------------------*\
| =========                 |                                                 |
| \\      /  F ield         | OpenFOAM: The Open Source CFD Toolbox           |
|  \\    /   O peration     | Version:  2112                                  |
|   \\  /    A nd           | Website:  www.openfoam.com                      |
|    \\/     M anipulation  |                                                 |
\*---------------------------------------------------------------------------*/
FoamFile
{
    version     2.0;
    format      ascii;
    arch        "LSB;label=32;scalar=64";
    class       volVectorField;
    location    "0.3";
    object      U;
}
// * * * * * * * * * * * * * * * * * * * * * * * * * * * * * * * * * * * * * //

dimensions      [0 1 -1 0 0 0 0];

internalField   nonuniform List<vector> 
1880
(
(0.0989828 0.000618606 0)
(0.0984626 0.00113967 0)
(0.0972599 0.00131855 0)
(0.0959596 0.00129742 0)
(0.0940507 0.00137963 0)
(0.0925187 0.00136756 0)
(0.0904877 0.00142742 0)
(0.0890311 0.00140155 0)
(0.0868657 0.00142948 0)
(0.0854764 0.00143615 0)
(0.0831468 0.00139156 0)
(0.0817073 0.00140423 0)
(0.0793143 0.00130165 0)
(0.0779781 0.00151496 0)
(0.0753117 0.00134903 0)
(0.0738582 0.00158478 0)
(0.071058 0.00110794 0)
(0.0696795 0.0017411 0)
(0.0665562 0.0010375 0)
(0.0651849 0.002273 0)
(0.0612682 0.000932764 0)
(0.0602438 0.00251801 0)
(0.0551296 0.000804187 0)
(0.0550759 0.00210896 0)
(0.0484824 0.00132446 0)
(0.0494866 0.00180035 0)
(0.0408117 0.00225098 0)
(0.0419906 0.00320951 0)
(0.0307038 0.00245272 0)
(0.0299168 0.00713572 0)
(0.0998261 0.000739323 0)
(0.100558 0.00134532 0)
(0.100333 0.0017449 0)
(0.101389 0.00163155 0)
(0.100628 0.00196561 0)
(0.101761 0.00178824 0)
(0.100614 0.00219465 0)
(0.101797 0.0019583 0)
(0.100357 0.00230813 0)
(0.101573 0.0020749 0)
(0.100096 0.00249307 0)
(0.101002 0.00217085 0)
(0.0995948 0.00265404 0)
(0.100023 0.00213801 0)
(0.0992647 0.00302494 0)
(0.098319 0.0023207 0)
(0.0989991 0.00330329 0)
(0.0960491 0.00249568 0)
(0.0980793 0.00354855 0)
(0.0939295 0.00282335 0)
(0.0959433 0.00402784 0)
(0.0922833 0.00355759 0)
(0.0928325 0.00418835 0)
(0.0893015 0.00485167 0)
(0.0893926 0.00393812 0)
(0.0844325 0.00599201 0)
(0.0845665 0.00579651 0)
(0.0782417 0.00650379 0)
(0.077541 0.00993117 0)
(0.0673093 0.0107175 0)
(0.0998855 0.000267264 0)
(0.100375 0.00063713 0)
(0.100284 0.00104343 0)
(0.10111 0.00104076 0)
(0.100795 0.00143155 0)
(0.101622 0.00122788 0)
(0.101253 0.0017234 0)
(0.101876 0.00145475 0)
(0.101644 0.00188678 0)
(0.101854 0.00175399 0)
(0.102236 0.00201268 0)
(0.101678 0.0020411 0)
(0.102574 0.00228203 0)
(0.101573 0.00203463 0)
(0.102628 0.00294127 0)
(0.101363 0.00208239 0)
(0.102433 0.00338054 0)
(0.10115 0.00270591 0)
(0.101959 0.00331017 0)
(0.100616 0.00391815 0)
(0.100921 0.00369348 0)
(0.100014 0.00430821 0)
(0.0996706 0.00557077 0)
(0.0982693 0.00381713 0)
(0.0986529 0.00776476 0)
(0.0947835 0.00526741 0)
(0.0963353 0.00904872 0)
(0.0915219 0.00919769 0)
(0.0914067 0.013939 0)
(0.0871654 0.0118204 0)
(0.0999053 0.000260598 0)
(0.100246 0.000580515 0)
(0.100078 0.00105484 0)
(0.100745 0.00104103 0)
(0.100425 0.0015317 0)
(0.101216 0.00120654 0)
(0.1008 0.00190229 0)
(0.101599 0.00134442 0)
(0.101082 0.00220938 0)
(0.101747 0.00152875 0)
(0.101646 0.0024398 0)
(0.101654 0.00184295 0)
(0.102128 0.00266738 0)
(0.10156 0.00212077 0)
(0.102493 0.00299182 0)
(0.101448 0.00249724 0)
(0.102441 0.00341066 0)
(0.101625 0.00310711 0)
(0.102109 0.00381882 0)
(0.101369 0.00396374 0)
(0.101774 0.00451068 0)
(0.100684 0.00469692 0)
(0.101454 0.00601409 0)
(0.0998459 0.00544195 0)
(0.100155 0.00794719 0)
(0.0987693 0.00756299 0)
(0.0983942 0.0101301 0)
(0.096235 0.0109433 0)
(0.0968889 0.0149212 0)
(0.094183 0.0159708 0)
(0.0999237 0.000165356 0)
(0.100177 0.00037923 0)
(0.100028 0.000727441 0)
(0.100528 0.000769177 0)
(0.100341 0.00113999 0)
(0.100881 0.000991555 0)
(0.100751 0.0014446 0)
(0.101218 0.00122463 0)
(0.101053 0.00167976 0)
(0.101417 0.00150299 0)
(0.101509 0.0018978 0)
(0.101523 0.00179352 0)
(0.101763 0.00233446 0)
(0.101742 0.00188631 0)
(0.101984 0.00300703 0)
(0.101781 0.00203371 0)
(0.102008 0.00362157 0)
(0.10188 0.00272397 0)
(0.101999 0.00403633 0)
(0.101747 0.00374742 0)
(0.101674 0.00499916 0)
(0.101581 0.00424574 0)
(0.101189 0.00694228 0)
(0.101214 0.00504704 0)
(0.100364 0.00886579 0)
(0.100583 0.00769521 0)
(0.0993425 0.0110553 0)
(0.0995836 0.0112268 0)
(0.0982747 0.015824 0)
(0.0990139 0.0153894 0)
(0.0999248 0.000139882 0)
(0.100163 0.000322323 0)
(0.0999889 0.000637257 0)
(0.100452 0.000691315 0)
(0.10024 0.00105616 0)
(0.100747 0.000920238 0)
(0.100622 0.00139298 0)
(0.101063 0.00113473 0)
(0.100943 0.001673 0)
(0.101234 0.00140352 0)
(0.101478 0.00188539 0)
(0.101283 0.00178824 0)
(0.101812 0.00219051 0)
(0.101514 0.00213766 0)
(0.102051 0.00266762 0)
(0.10176 0.00244709 0)
(0.101906 0.00334448 0)
(0.10215 0.00299706 0)
(0.101909 0.00408407 0)
(0.102071 0.00392473 0)
(0.101952 0.00501445 0)
(0.101837 0.00482476 0)
(0.101796 0.00666057 0)
(0.10181 0.00595344 0)
(0.101177 0.00874668 0)
(0.101643 0.00852022 0)
(0.100913 0.0110823 0)
(0.101047 0.0120874 0)
(0.100934 0.015195 0)
(0.101171 0.0164526 0)
(0.0999334 0.00010052 0)
(0.100138 0.000264844 0)
(0.0999827 0.000480024 0)
(0.100372 0.000581491 0)
(0.100213 0.000809596 0)
(0.10061 0.00082211 0)
(0.100589 0.00107788 0)
(0.100923 0.0010723 0)
(0.100896 0.00132446 0)
(0.101161 0.00134363 0)
(0.101377 0.001588 0)
(0.101332 0.00163166 0)
(0.101657 0.00205362 0)
(0.101647 0.00185687 0)
(0.101981 0.00268309 0)
(0.10187 0.00214445 0)
(0.10202 0.00334764 0)
(0.10226 0.00282379 0)
(0.102134 0.00405216 0)
(0.102418 0.00379755 0)
(0.102191 0.00512681 0)
(0.102436 0.0046792 0)
(0.102306 0.00680446 0)
(0.102498 0.00597905 0)
(0.102144 0.00876044 0)
(0.102722 0.00848297 0)
(0.102208 0.011228 0)
(0.102865 0.0116892 0)
(0.102794 0.0151188 0)
(0.103562 0.0156355 0)
(0.0999378 7.49259e-05 0)
(0.100127 0.000217403 0)
(0.0999797 0.000378118 0)
(0.100336 0.000486475 0)
(0.1002 0.000661095 0)
(0.100545 0.000713717 0)
(0.100581 0.000907123 0)
(0.10084 0.000968293 0)
(0.100922 0.00113964 0)
(0.101068 0.00126389 0)
(0.101457 0.00136936 0)
(0.10126 0.00161454 0)
(0.101753 0.00175672 0)
(0.101669 0.00194777 0)
(0.102064 0.00233646 0)
(0.102046 0.00226735 0)
(0.102123 0.0030777 0)
(0.102511 0.00284621 0)
(0.102446 0.00391196 0)
(0.102666 0.00382399 0)
(0.102757 0.00491079 0)
(0.102851 0.00490987 0)
(0.102996 0.00642979 0)
(0.103245 0.00627535 0)
(0.103118 0.00836147 0)
(0.103706 0.00862827 0)
(0.103693 0.0107382 0)
(0.10426 0.0116441 0)
(0.10469 0.0141688 0)
(0.10549 0.0153299 0)
(0.0999457 4.90988e-05 0)
(0.100113 0.000178614 0)
(0.0999895 0.000274207 0)
(0.100309 0.000402999 0)
(0.100207 0.000491624 0)
(0.100509 0.000612168 0)
(0.100585 0.00069111 0)
(0.100821 0.000856594 0)
(0.100922 0.000913854 0)
(0.101098 0.00111908 0)
(0.101457 0.00118455 0)
(0.101353 0.00139739 0)
(0.101774 0.00162992 0)
(0.10181 0.00170089 0)
(0.102176 0.00220857 0)
(0.10221 0.00208608 0)
(0.102356 0.00286067 0)
(0.102752 0.00274536 0)
(0.102774 0.00366457 0)
(0.103071 0.0036998 0)
(0.103205 0.00472388 0)
(0.10341 0.00475591 0)
(0.1037 0.00618246 0)
(0.103965 0.00615517 0)
(0.104099 0.00799076 0)
(0.104742 0.00832675 0)
(0.104945 0.010284 0)
(0.105676 0.0110632 0)
(0.106313 0.0133621 0)
(0.107243 0.0143349 0)
(0.0999532 2.80289e-05 0)
(0.100101 0.000134123 0)
(0.100003 0.000182481 0)
(0.100294 0.000305899 0)
(0.100228 0.000341931 0)
(0.100492 0.000485005 0)
(0.100618 0.000498213 0)
(0.100816 0.000717132 0)
(0.100976 0.000693538 0)
(0.101122 0.000979381 0)
(0.101535 0.000941527 0)
(0.101434 0.0012638 0)
(0.101865 0.00135544 0)
(0.101974 0.001591 0)
(0.10231 0.00191195 0)
(0.10244 0.00198363 0)
(0.102607 0.00256504 0)
(0.103007 0.0026184 0)
(0.103205 0.00335437 0)
(0.10341 0.00359038 0)
(0.103755 0.00434302 0)
(0.103972 0.00468604 0)
(0.104366 0.00571614 0)
(0.104739 0.00602733 0)
(0.105035 0.00742995 0)
(0.105678 0.00801156 0)
(0.106175 0.00955088 0)
(0.106919 0.0104913 0)
(0.107769 0.0122598 0)
(0.108762 0.0134167 0)
(0.0999613 7.80492e-06 0)
(0.100091 8.75984e-05 0)
(0.100021 9.1402e-05 0)
(0.100288 0.000203368 0)
(0.100257 0.00019213 0)
(0.100502 0.000343543 0)
(0.10066 0.000307778 0)
(0.100856 0.000543556 0)
(0.10103 0.000489219 0)
(0.101208 0.000770414 0)
(0.101607 0.000742807 0)
(0.101574 0.00101503 0)
(0.101971 0.00114559 0)
(0.102166 0.00134349 0)
(0.102494 0.00165422 0)
(0.102679 0.00177742 0)
(0.102891 0.00223855 0)
(0.103318 0.002413 0)
(0.103595 0.00300284 0)
(0.103843 0.00332284 0)
(0.104264 0.00399231 0)
(0.104553 0.00436774 0)
(0.105043 0.0052745 0)
(0.105486 0.00566567 0)
(0.105901 0.00683654 0)
(0.106612 0.00746208 0)
(0.107252 0.00877913 0)
(0.108062 0.00967038 0)
(0.109034 0.0111693 0)
(0.11011 0.0122046 0)
(0.0999693 -1.13934e-05 0)
(0.100082 3.4872e-05 0)
(0.100043 1.45725e-06 0)
(0.100291 9.02438e-05 0)
(0.100298 4.59892e-05 0)
(0.100527 0.000190998 0)
(0.100722 0.000123725 0)
(0.100913 0.000365448 0)
(0.101112 0.000282733 0)
(0.101309 0.000575426 0)
(0.101711 0.000517421 0)
(0.101731 0.000802604 0)
(0.102108 0.000886571 0)
(0.102383 0.00112967 0)
(0.102704 0.00136076 0)
(0.102936 0.00156364 0)
(0.103208 0.00190474 0)
(0.103628 0.00217468 0)
(0.104023 0.00261739 0)
(0.104274 0.00305088 0)
(0.104772 0.00355472 0)
(0.105153 0.00404464 0)
(0.105681 0.00475956 0)
(0.106213 0.00525172 0)
(0.106738 0.00617691 0)
(0.10746 0.00687355 0)
(0.108243 0.0079135 0)
(0.109091 0.0088208 0)
(0.11015 0.00999932 0)
(0.111273 0.0110234 0)
(0.0999768 -3.18413e-05 0)
(0.100077 -2.86973e-05 0)
(0.100069 -0.000100112 0)
(0.100308 -4.81401e-05 0)
(0.100354 -0.000121918 0)
(0.10058 -4.00665e-06 0)
(0.100807 -9.0526e-05 0)
(0.101007 0.000123294 0)
(0.101219 3.74497e-05 0)
(0.101449 0.000295761 0)
(0.101841 0.000248722 0)
(0.101918 0.000489493 0)
(0.102279 0.000575084 0)
(0.102619 0.000809674 0)
(0.102948 0.00100254 0)
(0.103219 0.00123953 0)
(0.103534 0.00149812 0)
(0.103983 0.00180544 0)
(0.104436 0.00217484 0)
(0.104736 0.0026095 0)
(0.105278 0.0030713 0)
(0.105739 0.00354644 0)
(0.106314 0.00417319 0)
(0.106918 0.00467647 0)
(0.10751 0.00543904 0)
(0.108271 0.00611052 0)
(0.109133 0.00698477 0)
(0.110019 0.0078077 0)
(0.111115 0.008797 0)
(0.112281 0.00969029 0)
(0.0999836 -5.38032e-05 0)
(0.100073 -9.78732e-05 0)
(0.100097 -0.000203089 0)
(0.10033 -0.000185566 0)
(0.100417 -0.000275479 0)
(0.100646 -0.000178545 0)
(0.100907 -0.000269618 0)
(0.101117 -7.84372e-05 0)
(0.101345 -0.000159273 0)
(0.10161 7.57586e-05 0)
(0.101996 3.19645e-05 0)
(0.102127 0.00024784 0)
(0.102484 0.000319615 0)
(0.102879 0.000557634 0)
(0.103224 0.000708732 0)
(0.103519 0.000964994 0)
(0.10389 0.00115448 0)
(0.104359 0.00148337 0)
(0.104866 0.00177177 0)
(0.105218 0.0022149 0)
(0.105784 0.00260174 0)
(0.106329 0.00307895 0)
(0.106939 0.00361153 0)
(0.107593 0.00412017 0)
(0.10826 0.0047385 0)
(0.109034 0.00539222 0)
(0.109952 0.00609656 0)
(0.11087 0.00685077 0)
(0.11198 0.00764698 0)
(0.113164 0.00844282 0)
(0.0999895 -8.60626e-05 0)
(0.100081 -0.000202063 0)
(0.100146 -0.000358296 0)
(0.10039 -0.000396632 0)
(0.100525 -0.000508556 0)
(0.100769 -0.000449115 0)
(0.10106 -0.000543986 0)
(0.101287 -0.00039627 0)
(0.101526 -0.000469063 0)
(0.101821 -0.00027836 0)
(0.102202 -0.000319772 0)
(0.102379 -0.000148229 0)
(0.102737 -8.56334e-05 0)
(0.103172 0.000134384 0)
(0.103532 0.000254864 0)
(0.103852 0.000499422 0)
(0.104268 0.000649034 0)
(0.104767 0.000958822 0)
(0.105303 0.0012122 0)
(0.105705 0.00161565 0)
(0.106297 0.00197224 0)
(0.106909 0.00241629 0)
(0.107566 0.00287876 0)
(0.108267 0.00336119 0)
(0.108984 0.00387551 0)
(0.109773 0.00446713 0)
(0.110711 0.00506518 0)
(0.111637 0.00571847 0)
(0.112736 0.00639006 0)
(0.113909 0.00706853 0)
(0.0999936 -0.000112606 0)
(0.10009 -0.000284322 0)
(0.1002 -0.000466065 0)
(0.100467 -0.000531243 0)
(0.100659 -0.000639422 0)
(0.100926 -0.000601883 0)
(0.101248 -0.000691401 0)
(0.101491 -0.00057987 0)
(0.101747 -0.000646383 0)
(0.102067 -0.000493265 0)
(0.102448 -0.000534049 0)
(0.102673 -0.000394876 0)
(0.103047 -0.000335282 0)
(0.103508 -0.000134258 0)
(0.103889 -3.92079e-05 0)
(0.10423 0.000188748 0)
(0.104702 0.00031509 0)
(0.105232 0.000605895 0)
(0.105794 0.000812563 0)
(0.106239 0.00116755 0)
(0.106853 0.00147816 0)
(0.107511 0.0018877 0)
(0.108219 0.00229525 0)
(0.108945 0.00276163 0)
(0.109724 0.00320562 0)
(0.11052 0.00375469 0)
(0.111472 0.00425695 0)
(0.112392 0.00481541 0)
(0.113477 0.00535009 0)
(0.114603 0.00590425 0)
(0.0999968 -0.00020316 0)
(0.100129 -0.000534571 0)
(0.100309 -0.00079905 0)
(0.10062 -0.000914435 0)
(0.100866 -0.00102511 0)
(0.101158 -0.00101544 0)
(0.101502 -0.00110067 0)
(0.101758 -0.00103012 0)
(0.102024 -0.00108462 0)
(0.102371 -0.000969703 0)
(0.102761 -0.0010112 0)
(0.103029 -0.00089877 0)
(0.103418 -0.000834336 0)
(0.103879 -0.000653385 0)
(0.104287 -0.000588232 0)
(0.104652 -0.000402965 0)
(0.105187 -0.000301461 0)
(0.105713 -5.08426e-05 0)
(0.106286 0.000130659 0)
(0.106742 0.000434422 0)
(0.107408 0.000708069 0)
(0.108099 0.00105948 0)
(0.108904 0.00139521 0)
(0.109648 0.00181077 0)
(0.110504 0.00219716 0)
(0.111267 0.00269127 0)
(0.112222 0.00313735 0)
(0.113057 0.00362029 0)
(0.114127 0.00407316 0)
(0.115146 0.00453391 0)
(0.099996 -0.000229188 0)
(0.100233 -0.000603493 0)
(0.100553 -0.000847528 0)
(0.100967 -0.000960731 0)
(0.101277 -0.00105361 0)
(0.101605 -0.00108012 0)
(0.101937 -0.00115867 0)
(0.102213 -0.00113057 0)
(0.102465 -0.00118485 0)
(0.102828 -0.00112014 0)
(0.10319 -0.00116789 0)
(0.103485 -0.00107819 0)
(0.103854 -0.00101416 0)
(0.104274 -0.000892716 0)
(0.10466 -0.000872089 0)
(0.105009 -0.000730094 0)
(0.10556 -0.000619283 0)
(0.106053 -0.000390958 0)
(0.106621 -0.000244052 0)
(0.107044 -1.04879e-05 0)
(0.107728 0.000205129 0)
(0.108367 0.000496686 0)
(0.109233 0.000806299 0)
(0.109952 0.00122588 0)
(0.110902 0.00162593 0)
(0.111649 0.00212338 0)
(0.112672 0.00253645 0)
(0.113472 0.00294332 0)
(0.114587 0.00328443 0)
(0.115535 0.00360301 0)
(0.0999919 -0.000688444 0)
(0.10034 -0.00136591 0)
(0.100706 -0.00157463 0)
(0.10111 -0.00161237 0)
(0.101311 -0.00167199 0)
(0.101547 -0.00172397 0)
(0.101658 -0.0017837 0)
(0.101812 -0.00177196 0)
(0.101801 -0.00177512 0)
(0.102034 -0.00173595 0)
(0.102063 -0.00176455 0)
(0.102173 -0.00169103 0)
(0.10217 -0.00158572 0)
(0.102391 -0.00149732 0)
(0.102423 -0.00149025 0)
(0.102611 -0.00140724 0)
(0.102746 -0.00130824 0)
(0.102992 -0.00111136 0)
(0.103142 -0.000958386 0)
(0.103457 -0.000761008 0)
(0.103841 -0.00060589 0)
(0.104406 -0.000433445 0)
(0.104962 -0.00024496 0)
(0.105627 5.86403e-05 0)
(0.106317 0.000395201 0)
(0.107162 0.000837441 0)
(0.108095 0.00122394 0)
(0.109201 0.00160671 0)
(0.110396 0.00190745 0)
(0.111783 0.002178 0)
(0.0990297 -0.000602717 0)
(0.0984544 -0.00114741 0)
(0.0974171 -0.00127725 0)
(0.0960157 -0.00127449 0)
(0.094382 -0.00130563 0)
(0.0927543 -0.00132849 0)
(0.0911467 -0.00132876 0)
(0.089578 -0.00131418 0)
(0.087975 -0.0013013 0)
(0.0865269 -0.00127512 0)
(0.084941 -0.00123235 0)
(0.0834786 -0.00114328 0)
(0.0820507 -0.00108104 0)
(0.0808275 -0.00109016 0)
(0.0793957 -0.00108753 0)
(0.0781961 -0.000980305 0)
(0.0769789 -0.000827236 0)
(0.0760964 -0.000729844 0)
(0.0750851 -0.00071361 0)
(0.0743906 -0.000696354 0)
(0.073582 -0.000664869 0)
(0.0731263 -0.000554067 0)
(0.0725765 -0.000359933 0)
(0.0725381 -9.68733e-05 0)
(0.0725074 0.000170794 0)
(0.0731246 0.000412957 0)
(0.0737007 0.000576712 0)
(0.0749249 0.000699708 0)
(0.0759527 0.000765707 0)
(0.0776119 0.000796418 0)
(0.0141036 0.00311029 0)
(0.0502999 0.0158255 0)
(0.0409188 0.0154251 0)
(0.0667375 0.0271933 8.63645e-22)
(0.057895 0.0275227 7.22621e-22)
(0.0799709 0.0359943 0)
(0.0679435 0.0330805 2.79221e-22)
(0.0993013 0.0415654 4.91438e-23)
(0.0818204 0.0342547 6.86509e-22)
(0.126056 0.0431873 0)
(0.0708874 0.0158693 0)
(0.0776617 0.0216112 0)
(0.0825624 0.0276034 0)
(0.0909876 0.0355711 0)
(0.0957094 0.0349408 0)
(0.102736 0.0451503 1.78978e-22)
(0.106752 0.0383209 4.9099e-23)
(0.117762 0.0505329 -7.50528e-23)
(0.124435 0.0510869 -5.26345e-22)
(0.142556 0.0597355 -4.74178e-22)
(0.0869077 0.0237939 0)
(0.0911076 0.0247081 0)
(0.0933262 0.0270491 0)
(0.0988482 0.0308105 0)
(0.10294 0.0385255 0)
(0.107641 0.0399021 -1.78975e-22)
(0.115951 0.044241 -4.90987e-23)
(0.120227 0.0373661 7.50525e-23)
(0.125674 0.0380655 2.76055e-22)
(0.143365 0.0413731 4.74217e-22)
(0.092745 0.0195411 -4.0177e-22)
(0.0975396 0.0249247 0)
(0.0999055 0.0282336 -3.204e-22)
(0.101952 0.0310902 -2.64015e-22)
(0.107211 0.0338791 -1.89041e-22)
(0.11206 0.0355186 0)
(0.120449 0.0373935 0)
(0.12567 0.0410938 1.29533e-22)
(0.128686 0.0388776 2.76188e-22)
(0.139483 0.0350488 4.33495e-22)
(0.0974196 0.0218105 4.01773e-22)
(0.100182 0.0227089 0)
(0.103065 0.0266944 3.20401e-22)
(0.106693 0.0278452 2.64016e-22)
(0.110806 0.0330292 1.89042e-22)
(0.115728 0.0321028 0)
(0.119971 0.0359133 0)
(0.126034 0.033918 -1.29533e-22)
(0.132934 0.0322115 -2.7619e-22)
(0.139664 0.0284588 -4.33501e-22)
(0.100923 0.0200517 0)
(0.103597 0.0220879 -2.88147e-22)
(0.106235 0.025213 0)
(0.109025 0.0263822 -1.91988e-22)
(0.113232 0.0293887 0)
(0.117675 0.0290969 0)
(0.122055 0.0311754 0)
(0.128772 0.0312477 -1.49825e-22)
(0.134111 0.0308512 0)
(0.137097 0.0267958 0)
(0.103624 0.0195348 2.85815e-22)
(0.105945 0.020437 5.44646e-22)
(0.108594 0.0235698 2.14332e-22)
(0.111867 0.023746 1.91989e-22)
(0.115308 0.0271429 0)
(0.11962 0.0264053 -3.1986e-23)
(0.123537 0.0286325 0)
(0.128852 0.0267716 1.49825e-22)
(0.133581 0.0263854 0)
(0.137351 0.0233023 0)
(0.106034 0.0180601 -2.85816e-22)
(0.108152 0.0190461 -2.56499e-22)
(0.11084 0.0215833 -2.14332e-22)
(0.113742 0.0220118 0)
(0.117028 0.0242315 0)
(0.120991 0.0235363 3.1986e-23)
(0.124721 0.0250484 0)
(0.129623 0.0242772 0)
(0.133944 0.024021 0)
(0.137244 0.020615 0)
(0.108059 0.016832 0)
(0.110066 0.0174882 -2.04599e-22)
(0.11254 0.0197018 0)
(0.115462 0.01968 -1.20058e-22)
(0.118488 0.0218002 0)
(0.122137 0.0212622 0)
(0.125553 0.0224112 6.7143e-23)
(0.12972 0.0208003 1.49199e-22)
(0.133729 0.020653 0)
(0.136928 0.0183911 3.19682e-22)
(0.109797 0.0153015 0)
(0.111665 0.0159268 2.04599e-22)
(0.11409 0.0176988 0)
(0.116801 0.0178681 1.20059e-22)
(0.119608 0.0192607 0)
(0.122928 0.0187011 0)
(0.126308 0.0195716 -6.71431e-23)
(0.130009 0.0185948 -1.492e-22)
(0.133339 0.0181876 0)
(0.136377 0.0157194 -3.19683e-22)
(0.11126 0.0138365 9.58083e-23)
(0.113057 0.0143302 0)
(0.115314 0.0157851 0)
(0.117902 0.0157838 4.52539e-23)
(0.12058 0.0170151 0)
(0.1236 0.0166113 0)
(0.126636 0.0171011 0)
(0.129948 0.0158878 -7.03278e-23)
(0.13316 0.0156237 0)
(0.135944 0.0137227 0)
(0.112498 0.0122935 -7.83543e-24)
(0.114221 0.0127465 0)
(0.116377 0.0139051 5.95201e-23)
(0.118778 0.0139842 -5.37619e-24)
(0.121279 0.0147966 0)
(0.124077 0.0144109 0)
(0.126988 0.0147723 -3.644e-23)
(0.12992 0.0138246 7.0328e-23)
(0.132693 0.0133856 -9.99009e-23)
(0.13531 0.0115838 -1.33177e-22)
(0.113554 0.0107634 -6.58661e-24)
(0.115205 0.0111451 0)
(0.117222 0.0120744 -5.36523e-24)
(0.119489 0.0121023 -4.27081e-24)
(0.121871 0.0127631 1.46539e-23)
(0.124429 0.0124402 9.25998e-24)
(0.127071 0.0126094 4.5529e-25)
(0.129775 0.0116708 -6.48465e-23)
(0.132382 0.0112925 5.13409e-24)
(0.134759 0.00978067 7.43619e-24)
(0.114449 0.00929111 -8.13866e-23)
(0.116032 0.00962323 0)
(0.117946 0.0103553 -5.41549e-23)
(0.120053 0.0103955 -3.56071e-23)
(0.122287 0.0108422 -1.46539e-23)
(0.124681 0.0105377 -1.94442e-23)
(0.127156 0.0106126 3.59848e-23)
(0.129604 0.00981485 6.48465e-23)
(0.131963 0.00938691 9.4767e-23)
(0.13419 0.00805065 1.25741e-22)
(0.115205 0.00776565 0)
(0.116717 0.0080553 0)
(0.118514 0.0086378 0)
(0.120488 0.00866387 0)
(0.122604 0.00899906 0)
(0.124824 0.00872493 1.01842e-23)
(0.127114 0.00871415 0)
(0.12939 0.00799874 0)
(0.131601 0.00759989 0)
(0.133664 0.00647304 0)
(0.115887 0.00643406 0)
(0.117306 0.00666508 0)
(0.119016 0.00709963 0)
(0.120843 0.00710772 0)
(0.122844 0.00731726 0)
(0.12491 0.00705265 5.23985e-24)
(0.127071 0.00697429 0)
(0.129172 0.00636043 0)
(0.131242 0.00596525 0)
(0.133171 0.0050077 0)
(0.116445 0.00495129 0)
(0.117727 0.00515392 0)
(0.119381 0.00548241 2.07522e-23)
(0.121025 0.00548662 0)
(0.122966 0.00561871 4.62051e-24)
(0.124838 0.00538766 -5.23986e-24)
(0.126924 0.00526958 0)
(0.128839 0.00475369 -2.70936e-23)
(0.13084 0.00439124 0)
(0.132593 0.00361501 0)
(0.116855 0.00385035 0)
(0.117853 0.00395865 0)
(0.119518 0.0041276 -2.07523e-23)
(0.120837 0.00408334 0)
(0.122786 0.00409965 -4.62053e-24)
(0.124299 0.0038717 0)
(0.12639 0.00369704 0)
(0.127917 0.00326122 2.70937e-23)
(0.129911 0.00290859 0)
(0.131238 0.00228701 0)
(0.113235 0.00233281 -7.76234e-24)
(0.113918 0.0024106 -6.47051e-24)
(0.115667 0.0024798 -4.95649e-24)
(0.11652 0.00244112 0)
(0.118502 0.00239498 -1.19017e-24)
(0.119398 0.00222805 0)
(0.121464 0.00204698 3.5536e-24)
(0.122194 0.00174131 0)
(0.124112 0.00144696 9.12906e-24)
(0.12442 0.00102975 1.21427e-23)
(0.0789118 0.000770433 7.76146e-24)
(0.0797521 0.000713426 6.46972e-24)
(0.0812528 0.000646282 4.95585e-24)
(0.0821 0.000572841 0)
(0.0836618 0.000482081 1.19e-24)
(0.0843284 0.000375642 0)
(0.0857669 0.000241407 -3.55303e-24)
(0.0859843 9.19953e-05 0)
(0.0870584 -8.18344e-05 -9.12741e-24)
(0.0865083 -0.000257429 -1.21405e-23)
(0.00676932 0.00198594 0)
(0.00877065 0.00463894 0)
(0.00209218 0.00537833 0)
(-0.0112886 0.00836278 0)
(-0.0545137 0.0174355 0)
(-0.0890949 0.0134442 0)
(-0.124021 0.0111897 0)
(-0.135548 0.00460673 0)
(-0.139675 0.000908711 0)
(-0.130332 -0.00263923 0)
(-0.119075 -0.00440964 0)
(-0.0995373 -0.00616799 0)
(-0.0784963 -0.00712145 0)
(-0.0549151 -0.00781983 0)
(-0.0302027 -0.0074203 0)
(-0.00806308 -0.00621891 0)
(0.0116916 -0.00518569 0)
(0.0277328 -0.00387288 0)
(0.0406019 -0.00264665 0)
(0.0502526 -0.00154088 0)
(0.0570664 -0.000573129 0)
(0.0614016 0.000248142 0)
(0.0635657 0.000878804 0)
(0.0639937 0.00129393 0)
(0.0632211 0.00149587 0)
(0.0617328 0.00150788 0)
(0.0598707 0.00139722 0)
(0.0579278 0.00121713 0)
(0.0560504 0.00100625 0)
(0.0543796 0.000793573 0)
(0.0529119 0.00060182 0)
(0.0517095 0.000440898 0)
(0.0506939 0.00031649 0)
(0.0499043 0.000222656 0)
(0.0492446 0.000158539 0)
(0.0487413 0.000110446 0)
(0.0483351 8.23288e-05 0)
(0.0479971 5.67321e-05 0)
(0.047788 4.66904e-05 0)
(0.0474997 3.26934e-05 0)
(0.00572836 -0.0140545 0)
(0.0103837 -0.000995701 0)
(-0.00288098 0.00945563 0)
(-0.0455703 0.0324967 0)
(-0.0803976 0.0359139 0)
(-0.105244 0.0331593 0)
(-0.128971 0.022588 0)
(-0.132212 0.00801769 0)
(-0.132967 -0.00394816 0)
(-0.120175 -0.0129721 0)
(-0.107477 -0.0181746 0)
(-0.087456 -0.0234174 0)
(-0.0664198 -0.0259329 0)
(-0.0422337 -0.0270924 0)
(-0.0181951 -0.0266627 0)
(0.00417444 -0.0235093 0)
(0.0240544 -0.0203527 0)
(0.0407759 -0.0166756 0)
(0.054637 -0.0131586 0)
(0.0657947 -0.0099379 0)
(0.0745906 -0.00709852 0)
(0.0813125 -0.00464384 0)
(0.0860235 -0.00260853 0)
(0.089089 -0.00102277 0)
(0.0909297 0.000124103 0)
(0.0920895 0.000863937 0)
(0.0927848 0.00128318 0)
(0.093287 0.00146389 0)
(0.0935511 0.00148707 0)
(0.0937477 0.00140199 0)
(0.0937584 0.00127235 0)
(0.0937462 0.00110687 0)
(0.0935869 0.000952988 0)
(0.0934397 0.000788128 0)
(0.093206 0.000663628 0)
(0.092999 0.000526982 0)
(0.092783 0.000445022 0)
(0.0925615 0.00033541 0)
(0.0924308 0.000295416 0)
(0.0921966 0.00020657 0)
(0.000294162 -0.00870578 0)
(-0.0179637 0.0123067 0)
(-0.0367607 0.0439195 0)
(-0.0573894 0.0581093 0)
(-0.0723378 0.0578192 0)
(-0.0865792 0.0470906 0)
(-0.0993566 0.0319759 0)
(-0.099712 0.00997918 0)
(-0.0965241 -0.0078302 0)
(-0.0854962 -0.0214434 0)
(-0.0737784 -0.0288779 0)
(-0.0567982 -0.035731 0)
(-0.0398188 -0.0406767 0)
(-0.0180883 -0.0435969 0)
(0.0023602 -0.0417721 0)
(0.0214742 -0.0374363 0)
(0.0376156 -0.0320894 0)
(0.0513146 -0.026388 0)
(0.0627224 -0.0209711 0)
(0.0717858 -0.0161329 0)
(0.0791539 -0.0118617 0)
(0.0855292 -0.00802742 0)
(0.0906701 -0.004757 0)
(0.0943192 -0.00228223 0)
(0.0964896 -0.000695551 0)
(0.0978196 0.000172862 0)
(0.0986874 0.000584057 0)
(0.0995373 0.000736183 0)
(0.100306 0.000766161 0)
(0.101156 0.000726743 0)
(0.101855 0.000683799 0)
(0.102541 0.000622585 0)
(0.103001 0.000588587 0)
(0.10342 0.000528391 0)
(0.103629 0.00050125 0)
(0.103822 0.000429781 0)
(0.103869 0.000402803 0)
(0.103924 0.000319556 0)
(0.103912 0.0002994 0)
(0.1039 0.000215789 0)
(0.00271768 -0.00211043 0)
(-0.0153125 0.027749 0)
(-0.0162817 0.0421742 0)
(-0.0362793 0.0606173 0)
(-0.0434625 0.0573656 0)
(-0.0534113 0.0503062 0)
(-0.0592405 0.0337484 0)
(-0.0583463 0.0084356 0)
(-0.0550166 -0.0140594 0)
(-0.046656 -0.0296225 0)
(-0.0376214 -0.0387944 0)
(-0.0258429 -0.0472109 0)
(-0.0102435 -0.053932 0)
(0.00699773 -0.0573118 0)
(0.0252861 -0.0555554 0)
(0.0416446 -0.0491119 0)
(0.0538615 -0.0417382 0)
(0.0633253 -0.0346277 0)
(0.0720186 -0.0276079 0)
(0.0788385 -0.0214491 0)
(0.0832694 -0.0167176 0)
(0.0870233 -0.0127014 0)
(0.0911864 -0.00877659 0)
(0.0954568 -0.00512351 0)
(0.0987846 -0.002345 0)
(0.10091 -0.000688428 0)
(0.101928 5.26329e-05 0)
(0.102476 0.000259486 0)
(0.102777 0.000264882 0)
(0.103211 0.00022193 0)
(0.103619 0.00021585 0)
(0.104161 0.000220123 0)
(0.104568 0.000268629 0)
(0.105014 0.000289473 0)
(0.105266 0.000339561 0)
(0.105543 0.000326858 0)
(0.105646 0.000352476 0)
(0.105797 0.000296711 0)
(0.105817 0.000302674 0)
(0.105908 0.000217834 0)
(0.00234177 -0.000484559 0)
(-0.0169913 0.0238416 0)
(-0.0213386 0.0514687 0)
(-0.0184106 0.0722789 0)
(-0.0129307 0.0702174 0)
(-0.0136195 0.0611562 0)
(-0.0134502 0.0394229 0)
(-0.0105093 0.0105793 0)
(-0.0075026 -0.0156092 0)
(-0.0030273 -0.0343357 0)
(0.00166761 -0.0450647 0)
(0.00921989 -0.0555489 0)
(0.0188825 -0.0646396 0)
(0.0334262 -0.0692745 0)
(0.0464676 -0.0669458 0)
(0.0592556 -0.0579441 0)
(0.069103 -0.04739 0)
(0.0737096 -0.0394824 0)
(0.078028 -0.0322154 0)
(0.0838987 -0.0241104 0)
(0.0878082 -0.0175243 0)
(0.0888437 -0.0135546 0)
(0.0894077 -0.0107685 0)
(0.0914916 -0.00779563 0)
(0.0948066 -0.00470296 0)
(0.098356 -0.00215435 0)
(0.101086 -0.000565499 0)
(0.102876 0.000126599 0)
(0.103767 0.000256181 0)
(0.104292 0.000145077 0)
(0.104545 3.12109e-05 0)
(0.104872 -3.19727e-05 0)
(0.105094 2.22962e-06 0)
(0.105417 4.81703e-05 0)
(0.105587 0.000136581 0)
(0.105822 0.000162097 0)
(0.105892 0.000216661 0)
(0.106033 0.000187287 0)
(0.106042 0.000204441 0)
(0.106131 0.000140038 0)
(0.00641813 0.00863621 0)
(-0.00120137 0.0514236 0)
(0.0164529 0.0458315 0)
(0.016563 0.0609332 0)
(0.0227415 0.0553184 0)
(0.0260686 0.047008 0)
(0.0335357 0.0290244 0)
(0.038711 0.00391126 0)
(0.0437361 -0.0202285 0)
(0.0475535 -0.0370505 0)
(0.050857 -0.0474934 0)
(0.0538016 -0.0587497 0)
(0.0597199 -0.0713382 0)
(0.0669523 -0.077578 0)
(0.0730031 -0.0747701 0)
(0.0768187 -0.0650855 0)
(0.0826817 -0.0510442 0)
(0.0852805 -0.0401782 0)
(0.0836422 -0.0345787 0)
(0.0846895 -0.0283637 0)
(0.0889173 -0.020129 0)
(0.0915011 -0.0135818 0)
(0.0909452 -0.0103492 0)
(0.0898434 -0.00874103 0)
(0.0903262 -0.00709386 0)
(0.092791 -0.00506939 0)
(0.096156 -0.00311048 0)
(0.0994988 -0.00162284 0)
(0.102019 -0.000733957 0)
(0.103745 -0.000340116 0)
(0.104663 -0.000209278 0)
(0.105232 -0.000187309 0)
(0.105464 -0.000132127 0)
(0.105696 -7.4268e-05 0)
(0.105766 4.38058e-05 0)
(0.105921 0.000108311 0)
(0.105943 0.000209679 0)
(0.106056 0.00019784 0)
(0.106051 0.000242366 0)
(0.10614 0.000157713 0)
(-0.054904 -0.00581162 0)
(0.00271718 0.011851 0)
(0.00752742 0.0328374 0)
(0.0465996 0.0635654 0)
(0.0644417 0.0643473 0)
(0.0765136 0.0559054 0)
(0.0851583 0.0349799 0)
(0.0902989 0.0067265 0)
(0.0937534 -0.0190533 0)
(0.0949095 -0.0372238 0)
(0.0929642 -0.0476561 0)
(0.0943992 -0.0584605 0)
(0.0971496 -0.0715111 0)
(0.0977271 -0.0790137 0)
(0.0979764 -0.0751508 0)
(0.0944479 -0.0660338 0)
(0.0917658 -0.0539051 0)
(0.0938628 -0.0398019 0)
(0.0928113 -0.0311054 0)
(0.0887588 -0.0272835 0)
(0.0880161 -0.0220949 0)
(0.0906013 -0.0149849 0)
(0.0924212 -0.00960691 0)
(0.092095 -0.00734607 0)
(0.0910189 -0.00684946 0)
(0.0910503 -0.00640226 0)
(0.0925996 -0.00541366 0)
(0.0953403 -0.00406953 0)
(0.0983442 -0.00276034 0)
(0.101121 -0.00172999 0)
(0.103154 -0.00101885 0)
(0.104572 -0.000592791 0)
(0.105316 -0.000319058 0)
(0.105777 -0.000167931 0)
(0.105917 -2.64102e-05 0)
(0.106051 2.80859e-05 0)
(0.106027 0.000108012 0)
(0.106083 9.31499e-05 0)
(0.106045 0.000126272 0)
(0.106085 6.0591e-05 0)
(0.106864 0.0439788 0)
(0.0822809 0.0173042 0)
(0.0536681 0.0136161 0)
(0.0619547 0.0253319 0)
(0.078423 0.0324286 0)
(0.0957119 0.0311588 0)
(0.110949 0.0194605 0)
(0.120168 2.65854e-05 0)
(0.124548 -0.0226433 0)
(0.123704 -0.0387178 0)
(0.122045 -0.0486539 0)
(0.122399 -0.0602865 0)
(0.122867 -0.0728392 0)
(0.117019 -0.0790773 0)
(0.109173 -0.0729479 0)
(0.103142 -0.0602285 0)
(0.0954288 -0.0506747 0)
(0.0924393 -0.0415217 0)
(0.0943078 -0.0316306 0)
(0.0941831 -0.025039 0)
(0.0919095 -0.021084 0)
(0.0914314 -0.0164314 0)
(0.0932376 -0.011276 0)
(0.0953806 -0.00761623 0)
(0.0964194 -0.00618802 0)
(0.0964921 -0.00608982 0)
(0.0963001 -0.00618191 0)
(0.0966786 -0.00581886 0)
(0.0977623 -0.00496455 0)
(0.0995209 -0.00385444 0)
(0.101403 -0.00273249 0)
(0.103177 -0.00178177 0)
(0.104442 -0.00102824 0)
(0.105331 -0.000522534 0)
(0.105737 -0.000151938 0)
(0.105985 3.36659e-05 0)
(0.106016 0.000201601 0)
(0.106079 0.000199326 0)
(0.106047 0.000256372 0)
(0.106086 0.000136504 0)
(0.137734 0.0416863 0)
(0.141948 0.0375924 0)
(0.129818 0.0419793 0)
(0.12078 0.0425606 0)
(0.120994 0.0368208 0)
(0.12696 0.0272757 0)
(0.136249 0.0144238 0)
(0.143062 -0.00187536 0)
(0.147347 -0.0219656 0)
(0.148597 -0.0377226 0)
(0.147694 -0.0485156 0)
(0.148903 -0.0587243 0)
(0.147424 -0.0667375 0)
(0.135925 -0.0696216 0)
(0.119131 -0.0653931 0)
(0.107624 -0.0544442 0)
(0.100877 -0.0438465 0)
(0.0955341 -0.0372924 0)
(0.0934771 -0.031673 0)
(0.0942975 -0.0255991 0)
(0.0952478 -0.0203078 0)
(0.0955904 -0.0160557 0)
(0.0962429 -0.0125441 0)
(0.0978743 -0.00974669 0)
(0.100213 -0.00774893 0)
(0.10258 -0.00634171 0)
(0.104031 -0.00543264 0)