/*--------------------------------*- C++ -*----------------------------------*\
| =========                 |                                                 |
| \\      /  F ield         | OpenFOAM: The Open Source CFD Toolbox           |
|  \\    /   O peration     | Version:  2112                                  |
|   \\  /    A nd           | Website:  www.openfoam.com                      |
|    \\/     M anipulation  |                                                 |
\*---------------------------------------------------------------------------*/
FoamFile
{
    version     2.0;
    format      ascii;
    arch        "LSB;label=32;scalar=64";
    class       volScalarField;
    location    "0.25";
    object      nut;
}
// * * * * * * * * * * * * * * * * * * * * * * * * * * * * * * * * * * * * * //

dimensions      [0 2 -1 0 0 0 0];

internalField   nonuniform List<scalar> 
1880
(
3.5162e-11
4.96018e-12
3.01184e-13
3.28887e-14
2.6253e-14
1.98613e-13
3.24673e-15
1.79858e-14
2.91552e-14
1.82002e-13
1.04208e-13
1.08254e-13
2.64603e-14
1.21686e-13
1.42764e-13
2.49635e-13
2.98071e-13
4.14502e-13
1.94681e-13
2.06014e-12
4.95496e-13
2.11871e-12
6.23963e-12
2.75224e-13
6.32269e-12
4.23069e-11
5.35325e-14
5.29849e-10
5.21969e-10
5.7601e-11
4.86588e-09
5.86565e-09
1.33076e-09
9.95827e-11
1.44402e-10
5.35946e-11
2.2579e-11
9.30431e-12
2.89786e-11
2.39589e-11
4.66639e-11
6.47646e-12
7.6046e-12
4.00396e-13
1.48402e-13
1.4555e-11
4.32747e-12
3.90423e-11
7.7895e-13
7.93731e-12
2.92514e-13
3.43981e-13
4.40484e-11
3.90798e-10
9.44248e-10
1.7593e-09
6.92714e-09
3.50628e-09
8.02578e-09
3.72145e-08
1.74431e-09
1.92926e-09
8.72765e-10
2.48198e-10
1.70544e-09
1.55162e-09
2.17972e-09
1.86205e-09
8.11326e-10
6.03136e-09
3.31176e-10
1.47305e-09
1.06015e-09
7.70296e-11
8.5868e-10
6.36033e-10
3.55006e-10
1.98707e-09
1.81503e-10
1.14975e-09
4.40949e-10
1.06177e-10
9.3657e-09
1.73387e-09
8.45229e-09
2.32475e-08
3.97445e-09
3.81973e-08
3.91526e-08
1.15159e-08
3.45282e-13
2.05122e-11
2.7383e-10
7.11372e-10
2.6127e-09
3.18223e-09
4.08285e-10
4.05213e-09
7.79182e-10
2.12398e-08
1.33984e-09
1.05342e-08
4.69395e-09
1.31292e-08
1.07246e-08
9.59056e-09
3.10642e-09
3.78392e-09
2.07602e-11
3.11897e-09
6.04787e-09
8.67799e-09
1.40195e-08
1.24357e-08
1.82518e-08
1.80403e-08
1.86299e-08
2.83917e-08
3.06204e-08
3.37839e-08
2.63727e-11
2.68053e-10
5.28242e-10
2.68031e-10
9.06751e-10
5.04872e-10
5.89629e-10
6.2883e-11
1.10775e-09
1.0879e-08
2.60681e-09
5.00675e-09
7.29634e-09
1.45507e-08
8.41174e-09
3.43087e-09
7.93658e-09
1.42014e-09
5.79078e-10
3.27204e-09
1.52249e-10
5.67672e-09
3.80944e-09
1.01834e-08
1.10897e-08
1.73943e-08
1.38694e-08
2.33957e-08
2.48356e-08
2.74169e-08
9.08381e-14
3.76426e-12
2.17302e-11
3.87714e-12
1.94801e-09
6.42013e-11
3.04973e-10
1.27254e-09
6.56672e-10
1.01942e-08
1.08339e-09
5.95104e-09
3.25393e-09
2.96026e-09
3.03736e-09
7.18187e-09
1.82558e-09
7.62246e-10
1.4965e-09
2.041e-09
2.8471e-09
5.70579e-09
5.23784e-09
9.70924e-09
1.08215e-08
1.46717e-08
1.492e-08
1.94253e-08
2.50384e-08
2.33935e-08
7.36945e-13
1.51328e-11
2.36589e-10
2.52818e-10
1.30014e-09
6.53731e-10
1.10766e-09
1.18369e-09
1.46921e-09
4.51573e-10
3.72336e-09
6.51438e-09
6.79059e-09
2.46355e-09
6.5904e-09
6.52768e-09
4.67209e-09
2.29428e-09
1.77269e-09
3.73905e-09
3.49748e-09
5.25486e-09
7.02293e-09
7.70191e-09
9.8955e-09
1.31447e-08
1.35845e-08
1.70457e-08
2.09712e-08
2.14731e-08
5.90196e-13
1.91705e-11
2.13603e-10
2.45197e-10
1.8391e-09
5.81535e-10
1.01814e-09
2.13457e-09
1.32968e-09
3.1012e-10
2.28437e-09
6.66939e-09
3.83372e-09
1.55861e-09
3.14882e-09
5.13738e-09
2.633e-09
2.26634e-09
3.15195e-09
4.21377e-09
4.64012e-09
6.54845e-09
7.96579e-09
9.26724e-09
1.10024e-08
1.21049e-08
1.39009e-08
1.58298e-08
2.03426e-08
1.91874e-08
1.68267e-12
5.40926e-11
3.76974e-10
4.76367e-10
1.90119e-09
1.10226e-09
1.44718e-09
2.36486e-09
1.72029e-09
1.05015e-09
2.76566e-09
6.13901e-09
4.06679e-09
1.73637e-09
2.99471e-09
4.09739e-09
2.37231e-09
3.84989e-09
3.27887e-09
4.47521e-09
5.25466e-09
5.74705e-09
8.20642e-09
8.79143e-09
1.01737e-08
1.18317e-08
1.27832e-08
1.42563e-08
1.77355e-08
1.79419e-08
5.79814e-12
1.59172e-10
5.72638e-10
7.32669e-10
2.09293e-09
1.46523e-09
1.61845e-09
2.63269e-09
1.90539e-09
1.82534e-09
2.47292e-09
5.36135e-09
3.29613e-09
2.2065e-09
2.87481e-09
4.09662e-09
3.11842e-09
3.78487e-09
3.95927e-09
5.0593e-09
5.80053e-09
6.73567e-09
8.46849e-09
8.5362e-09
1.0024e-08
1.08944e-08
1.24478e-08
1.36628e-08
1.68487e-08
1.65511e-08
3.10281e-11
3.73955e-10
7.74916e-10
9.56087e-10
2.28466e-09
1.61851e-09
1.71404e-09
2.96753e-09
2.11641e-09
2.17009e-09
2.38067e-09
5.08271e-09
2.85031e-09
2.74342e-09
2.85461e-09
4.14488e-09
3.56378e-09
4.41732e-09
4.31172e-09
5.11821e-09
5.99581e-09
6.7073e-09
8.07138e-09
8.57204e-09
9.35983e-09
1.06199e-08
1.18083e-08
1.28155e-08
1.52863e-08
1.57975e-08
8.70925e-11
5.59807e-10
9.59324e-10
1.19071e-09
2.26912e-09
1.93979e-09
1.93773e-09
2.89676e-09
2.33167e-09
2.94072e-09
2.63635e-09
4.3554e-09
3.09683e-09
3.37238e-09
3.30945e-09
4.27568e-09
3.91717e-09
4.52655e-09
4.71268e-09
5.45046e-09
6.24102e-09
6.79784e-09
7.9439e-09
8.29242e-09
9.32636e-09
1.02473e-08
1.1456e-08
1.23188e-08
1.44696e-08
1.4859e-08
4.3135e-11
5.42531e-10
8.82249e-10
1.20122e-09
2.4425e-09
1.76266e-09
1.82078e-09
3.17108e-09
2.44591e-09
2.8664e-09
2.56925e-09
4.50519e-09
2.90134e-09
3.54325e-09
3.5546e-09
4.5823e-09
4.34255e-09
4.54607e-09
4.88734e-09
5.67735e-09
6.17829e-09
6.9617e-09
7.56256e-09
8.36462e-09
9.09104e-09
9.98792e-09
1.10291e-08
1.18224e-08
1.33876e-08
1.42438e-08
1.73561e-11
4.13452e-10
1.05259e-09
1.37177e-09
2.1527e-09
2.06845e-09
2.0236e-09
2.95981e-09
2.53708e-09
3.50707e-09
2.7971e-09
4.11286e-09
3.15996e-09
4.17512e-09
3.83295e-09
4.68695e-09
4.52992e-09
4.94996e-09
5.21905e-09
5.79415e-09
6.38828e-09
6.96257e-09
7.65457e-09
8.27932e-09
8.95428e-09
9.68707e-09
1.06498e-08
1.13633e-08
1.26953e-08
1.35267e-08
1.17605e-12
2.38089e-10
4.09979e-10
9.90506e-10
2.57519e-09
1.3637e-09
1.53721e-09
3.20179e-09
2.41602e-09
2.87106e-09
2.715e-09
4.27384e-09
2.97972e-09
3.90153e-09
3.94136e-09
4.92773e-09
4.76849e-09
4.73358e-09
5.17046e-09
5.92672e-09
6.21975e-09
6.92069e-09
7.34385e-09
8.06538e-09
8.69549e-09
9.27506e-09
1.01521e-08
1.08995e-08
1.19008e-08
1.29118e-08
7.37775e-11
5.9007e-10
1.35791e-09
1.40715e-09
1.9456e-09
1.86686e-09
1.85348e-09
2.49327e-09
2.40118e-09
3.78116e-09
2.81634e-09
3.74208e-09
3.08999e-09
4.33112e-09
4.03437e-09
4.90595e-09
4.79756e-09
5.1879e-09
5.55313e-09
6.11732e-09
6.43246e-09
6.98135e-09
7.31831e-09
7.85573e-09
8.26879e-09
8.81613e-09
9.62755e-09
1.03325e-08
1.13087e-08
1.22668e-08
9.8855e-13
2.66527e-11
5.18576e-11
7.15923e-10
2.21263e-09
6.58182e-10
8.35565e-10
2.09915e-09
1.60285e-09
1.87892e-09
2.68195e-09
3.82854e-09
2.65595e-09
3.40214e-09
4.03734e-09
4.98311e-09
4.83397e-09
5.15297e-09
5.6033e-09
6.28039e-09
6.2724e-09
6.49873e-09
6.61441e-09
6.94562e-09
7.44249e-09
7.87882e-09
8.76404e-09
9.62362e-09
1.0604e-08
1.16199e-08
2.0994e-09
2.34025e-09
1.5165e-09
1.64868e-09
2.12866e-09
2.44092e-09
3.28774e-09
3.33339e-09
2.99247e-09
3.47449e-09
1.76513e-09
2.08324e-09
6.06311e-10
5.61822e-10
5.44096e-12
4.64735e-11
3.5343e-11
7.26438e-11
7.41633e-12
5.92581e-11
6.33317e-10
1.09503e-09
9.72628e-10
2.80604e-10
1.027e-11
4.55067e-11
3.99842e-10
1.7463e-09
3.08754e-09
5.19867e-09
4.98419e-09
5.79796e-09
9.26988e-10
1.34506e-10
4.74918e-11
7.26734e-12
9.51647e-13
1.08983e-12
7.26384e-13
2.84086e-13
2.38702e-12
1.04784e-12
6.37022e-13
8.17874e-12
1.15612e-11
2.89502e-12
2.80061e-13
1.0308e-12
1.21568e-11
3.45201e-11
6.55156e-11
8.51815e-11
6.9367e-11
4.51513e-11
2.04574e-11
7.53577e-12
2.78705e-12
4.7302e-13
1.01066e-13
1.34908e-15
3.46473e-11
5.01008e-12
2.22581e-13
1.2858e-14
4.92197e-14
5.85267e-14
3.4448e-15
6.37402e-16
9.83931e-17
3.36503e-15
1.66257e-16
1.4831e-15
2.03727e-14
3.2462e-14
1.51211e-15
1.97576e-15
2.46546e-16
4.175e-14
3.1491e-13
6.6149e-13
7.86694e-13
5.36886e-13
2.54202e-13
8.54548e-14
1.82625e-14
5.69287e-15
1.17574e-15
8.65809e-16
8.39052e-17
2.70281e-16
1.4767e-08
3.32271e-09
2.25235e-11
1.59307e-10
9.87523e-12
1.2469e-10
6.07971e-10
1.7267e-11
3.80925e-09
1.37708e-09
1.39776e-08
8.72449e-09
1.4581e-08
7.94837e-08
2.49551e-09
3.76199e-08
3.12428e-10
9.56967e-08
1.04308e-07
7.72725e-07
7.11764e-08
6.26709e-08
6.19255e-09
3.08061e-08
5.32894e-08
5.26269e-08
1.3628e-08
1.26811e-08
7.60048e-08
1.06516e-07
5.27644e-08
4.7222e-08
5.1159e-08
2.11568e-08
3.36218e-08
4.98406e-08
4.9258e-08
2.90763e-08
3.66294e-08
3.60965e-08
4.13897e-08
3.83395e-08
3.37958e-08
2.8696e-08
3.65066e-08
4.47383e-08
4.00199e-08
3.81923e-08
3.92977e-08
3.50856e-08
4.21739e-08
3.08947e-08
3.47854e-08
3.15382e-08
3.30048e-08
4.03109e-08
3.98332e-08
4.03496e-08
3.25514e-08
2.68057e-08
3.22317e-08
2.7987e-08
2.82892e-08
2.71465e-08
3.1011e-08
3.59332e-08
3.42394e-08
3.27123e-08
3.24816e-08
3.37613e-08
3.1966e-08
2.46694e-08
2.75479e-08
2.72867e-08
2.7546e-08
3.24963e-08
3.33284e-08
3.07027e-08
2.73518e-08
2.75913e-08
2.60495e-08
2.2341e-08
2.42137e-08
2.5106e-08
2.60185e-08
2.81761e-08
2.87979e-08
2.87632e-08
2.74537e-08
2.46034e-08
2.39515e-08
2.04577e-08
2.27647e-08
2.33307e-08
2.36592e-08
2.67926e-08
2.70016e-08
2.49304e-08
2.39316e-08
2.36585e-08
2.04539e-08
1.88191e-08
2.07979e-08
2.19927e-08
2.22347e-08
2.34358e-08
2.40174e-08
2.37774e-08
2.2485e-08
2.04306e-08
1.84661e-08
1.75844e-08
1.94481e-08
2.02892e-08
2.06579e-08
2.22949e-08
2.19358e-08
2.08718e-08
2.0237e-08
1.91397e-08
1.64984e-08
1.6429e-08
1.80485e-08
1.91168e-08
1.94093e-08
2.0102e-08
1.99835e-08
1.94606e-08
1.86101e-08
1.71358e-08
1.52693e-08
1.54836e-08
1.69083e-08
1.78282e-08
1.81563e-08
1.88196e-08
1.83976e-08
1.76345e-08
1.70343e-08
1.57727e-08
1.41424e-08
1.46312e-08
1.587e-08
1.6779e-08
1.70964e-08
1.74152e-08
1.70514e-08
1.64073e-08
1.57364e-08
1.44477e-08
1.34291e-08
1.38994e-08
1.50035e-08
1.57545e-08
1.60917e-08
1.63331e-08
1.59801e-08
1.52992e-08
1.463e-08
1.34454e-08
1.2671e-08
1.31852e-08
1.42328e-08
1.48377e-08
1.52334e-08
1.52982e-08
1.51022e-08
1.43568e-08
1.37654e-08
1.23584e-08
6.83538e-09
6.15542e-09
7.7668e-09
7.05387e-09
8.09659e-09
6.79229e-09
7.26384e-09
5.31003e-09
5.01985e-09
3.17877e-09
7.02968e-14
5.59299e-13
9.00042e-13
4.17921e-12
7.6571e-12
1.49067e-11
2.08648e-11
2.63341e-11
2.59094e-11
2.35905e-11
5.93584e-15
3.91037e-15
7.06898e-15
1.06247e-14
1.59414e-14
3.32787e-14
3.97561e-14
6.68428e-14
5.85228e-14
3.93604e-14
2.79681e-08
3.49781e-08
3.41492e-08
3.13937e-08
1.34065e-08
3.71029e-09
7.00683e-10
3.74867e-10
2.9053e-10
5.35932e-10
1.73647e-09
5.3863e-09
2.05499e-08
8.36278e-08
1.32907e-07
2.91656e-08
3.54423e-09
5.2894e-10
9.97397e-11
2.03135e-11
3.53331e-12
3.93349e-13
1.13754e-14
1.48586e-15
2.93523e-14
6.26068e-14
7.2669e-14
5.92594e-14
3.72649e-14
1.97427e-14
9.12508e-15
3.99676e-15
1.64648e-15
7.2098e-16
3.24966e-16
1.55932e-16
8.61215e-17
3.61239e-17
3.08285e-17
3.0424e-17
2.76081e-08
1.35871e-07
3.8341e-08
1.45377e-07
1.52508e-07
3.01814e-08
1.05164e-07
9.78781e-07
5.15559e-08
2.20965e-09
4.05025e-08
8.10722e-08
1.32697e-07
1.38838e-07
1.27463e-07
1.06735e-07
8.17093e-08
5.54933e-08
3.25563e-08
1.64095e-08
6.99314e-09
2.41878e-09
6.85256e-10
1.57883e-10
2.78472e-11
2.99809e-12
1.00125e-13
1.80397e-14
1.49408e-13
2.51112e-13
2.77494e-13
2.11693e-13
1.53739e-13
9.05698e-14
5.94441e-14
3.15566e-14
2.13739e-14
1.03813e-14
7.29385e-15
2.7519e-15
5.33921e-08
1.20351e-08
5.98998e-08
6.17331e-08
4.6561e-08
5.90254e-07
1.23116e-06
1.25647e-06
4.23459e-07
3.59629e-08
9.9975e-12
1.12848e-08
5.29422e-08
9.72195e-08
1.13738e-07
1.10146e-07
9.63527e-08
7.81797e-08
5.72588e-08
3.61887e-08
2.05024e-08
1.22884e-08
8.81252e-09
6.96686e-09
5.10299e-09
2.92485e-09
1.21879e-09
3.44981e-10
6.60952e-11
8.04499e-12
4.23184e-13
3.77436e-14
1.17783e-13
2.33214e-13
3.30171e-13
2.80676e-13
2.88807e-13
1.77234e-13
1.68388e-13
6.94098e-14
1.74209e-07
1.37407e-07
1.37204e-07
1.68646e-08
1.68265e-07
9.59816e-07
1.53825e-06
1.35741e-06
5.03138e-07
8.06754e-08
1.96528e-08
2.62038e-11
1.02809e-08
4.65002e-08
7.98668e-08
8.92984e-08
8.43042e-08
7.2003e-08
4.83808e-08
3.57363e-08
3.04547e-08
1.6139e-08
6.30521e-09
4.00901e-09
4.63051e-09
5.9237e-09
6.38138e-09
5.72523e-09
4.48664e-09
3.01655e-09
1.66039e-09
6.63446e-10
1.6563e-10
2.03298e-11
2.36315e-13
2.23007e-13
2.78771e-12
3.13382e-12
5.66788e-12
2.73661e-12
4.20564e-08
1.62008e-07
1.46735e-07
8.30825e-09
3.89368e-07
1.88175e-06
2.355e-06
1.87107e-06
6.98297e-07
9.3905e-08
2.78506e-08
7.13271e-09
1.2031e-09
3.30922e-08
7.25679e-08
8.55031e-08
6.70787e-08
5.27703e-08
2.23954e-08
5.94427e-11
1.82426e-10
3.16418e-12
2.00864e-09
6.90034e-09
2.20953e-09
2.30641e-09
3.79238e-09
4.79118e-09
4.68043e-09
3.91253e-09
3.03472e-09
2.23668e-09
1.62295e-09
1.13839e-09
7.77884e-10
5.06673e-10
2.95413e-10
1.72751e-10
7.48632e-11
6.67625e-11
7.52534e-07
6.94204e-08
1.1187e-07
3.33188e-09
4.68102e-07
1.7915e-06
2.50283e-06
2.53765e-06
1.55966e-06
1.89606e-07
7.41945e-09
6.39658e-09
3.4477e-11
2.96502e-08
7.18231e-08
6.78367e-08
4.5414e-08
5.21259e-08
3.70252e-08
2.73405e-09
3.36561e-08
2.32302e-09
7.2346e-11
1.43774e-11
8.2658e-10
4.43557e-09
3.87428e-09
3.55826e-09
3.75799e-09
3.50549e-09
2.8873e-09
2.19209e-09
1.6354e-09
1.19417e-09
9.07052e-10
7.07176e-10
5.9129e-10
5.27002e-10
4.81757e-10
4.90601e-10
1.31424e-08
2.86107e-07
2.42647e-07
2.07748e-07
3.28992e-09
2.09903e-06
2.76723e-06
2.77741e-06
2.33713e-06
1.0563e-06
1.56593e-08
1.49002e-10
4.68517e-09
3.62667e-08
6.3963e-08
6.96649e-08
3.49692e-09
5.03883e-10
2.65313e-08
2.35516e-08
1.4021e-08
2.78159e-09
8.83062e-10
8.17235e-10
8.96159e-10
1.042e-09
1.49952e-09
2.69435e-09
3.37818e-09
2.87276e-09
2.37811e-09
1.87376e-09
1.43719e-09
1.04238e-09
8.07296e-10
6.00801e-10
5.33036e-10
4.56713e-10
4.51412e-10
4.59194e-10
1.42407e-08
5.68862e-08
3.35731e-09
1.16448e-07
4.80591e-08
8.99272e-08
2.04182e-06
2.48303e-06
2.35095e-06
1.20167e-06
5.48168e-08
5.00865e-09
4.53562e-08
8.00147e-08
8.78743e-08
7.81782e-08
6.48007e-08
8.05231e-09
3.52904e-09
2.88813e-08
1.66339e-09
2.99531e-10
5.71428e-09
2.30571e-08
1.84049e-08
7.56877e-09
2.77559e-09
9.38047e-10
3.98564e-10
4.63404e-10
1.28784e-09
1.54942e-09
1.36196e-09
1.05704e-09
8.26862e-10
6.77149e-10
5.629e-10
5.11016e-10
4.72803e-10
4.77057e-10
1.28159e-06
1.02449e-08
4.43414e-09
7.77808e-11
2.84347e-08
6.25546e-07
1.92414e-06
2.24107e-06
2.07495e-06
1.06901e-06
8.89937e-09
3.4187e-08
8.51843e-08
3.89808e-08
3.86449e-08
5.15855e-08
6.12339e-08
5.32829e-08
4.32475e-08
3.82014e-08
2.37633e-08
3.47013e-09
5.6837e-10
9.66909e-10
3.43148e-09
1.02249e-08
1.6444e-08
1.1513e-08
4.19567e-09
7.59818e-10
4.02855e-11
4.5092e-11
1.39482e-10
4.19365e-10
7.67035e-10
6.28163e-10
5.81687e-10
4.34085e-10
4.14593e-10
3.98942e-10
7.19524e-08
3.01057e-07
3.04727e-08
8.34305e-09
4.4119e-09
7.22853e-07
1.46869e-06
1.72468e-06
1.33368e-06
2.2208e-09
8.49421e-08
9.92619e-08
1.10351e-07
6.77095e-08
4.57304e-08
4.60602e-08
4.28984e-08
4.2785e-08
2.90883e-08
1.21708e-08
1.61673e-08
2.00539e-08
8.7203e-09
1.33388e-08
7.30732e-09
4.04702e-09
4.51738e-09
6.87817e-09
9.1814e-09
8.56515e-09
5.25717e-09
2.14662e-09
8.18709e-10
3.94004e-10
5.03983e-10
5.36784e-10
6.2851e-10
5.20829e-10
4.75281e-10
4.12447e-10
4.37551e-08
5.57082e-09
3.93429e-08
4.74391e-08
3.17881e-08
2.8658e-08
4.11075e-10
2.80895e-09
5.5943e-08
1.16959e-07
9.71581e-08
3.31746e-08
6.15818e-08
3.1234e-08
3.97356e-08
4.89157e-08
4.18171e-08
3.5349e-08
3.05842e-08
2.46497e-08
1.06191e-08
1.86899e-08
1.95287e-07
1.03562e-07
3.50318e-08
2.78093e-08
6.68206e-08
5.28375e-10
7.00174e-09
5.20701e-09
3.96726e-09
3.22387e-09
2.51976e-09
1.93274e-09
1.41494e-09
1.06766e-09
8.25155e-10
6.12065e-10
4.85205e-10
3.49275e-10
5.02838e-08
1.52958e-08
4.61077e-08
6.34885e-08
6.645e-08
6.36326e-08
6.81235e-08
8.22771e-08
9.79708e-08
8.23027e-08
8.23016e-08
6.38681e-08
3.40975e-08
4.41241e-08
4.81076e-08
3.04058e-08
3.84686e-08
2.62599e-08
1.65101e-08
2.25902e-07
1.10733e-07
2.76706e-08
1.31666e-08
8.41054e-09
7.31685e-09
9.48718e-09
9.73085e-09
1.53088e-08
2.42404e-08
3.0085e-08
1.81715e-08
2.09694e-09
5.91035e-11
3.12236e-10
6.5251e-10
7.17148e-10
8.64731e-10
6.57045e-10
5.44212e-10
3.40056e-10
4.63694e-08
3.87383e-08
3.447e-08
4.04356e-08
4.53406e-08
5.7454e-08
7.05453e-08
8.21775e-08
7.44184e-08
5.39068e-08
4.62864e-08
5.66624e-08
5.32742e-08
3.54118e-08
4.13732e-08
3.02976e-08
1.75565e-08
2.65815e-08
3.11642e-08
2.73162e-08
1.07206e-09
1.92611e-08
5.73813e-09
3.91794e-10
3.47834e-10
3.71641e-10
2.16133e-09
7.48835e-09
1.23763e-08
1.09444e-08
6.48749e-09
3.52156e-09
2.39904e-09
1.80374e-09
1.56755e-09
1.22346e-09
1.04175e-09
7.60203e-10
6.03879e-10
3.37352e-10
4.54924e-08
3.72948e-08
3.13102e-08
3.40324e-08
3.9462e-08
4.62615e-08
5.61456e-08
6.32842e-08
6.10997e-08
6.49186e-08
3.01872e-08
3.07334e-08
5.11113e-08
4.46273e-08
2.99686e-08
1.54317e-08
2.5554e-08
4.80738e-09
8.21433e-09
2.42255e-08
2.28225e-09
4.36904e-10
1.42847e-08
1.15754e-09
8.03007e-08
1.59003e-07
1.90717e-10
1.04814e-08
1.25341e-08
9.85057e-09
6.5437e-09
3.96245e-09
2.51879e-09
1.71197e-09
1.50395e-09
1.28541e-09
1.18285e-09
5.3287e-10
4.60319e-10
2.89663e-10
3.42299e-08
3.25263e-08
2.75016e-08
2.71368e-08
3.56239e-08
3.87567e-08
4.35765e-08
4.64361e-08
4.90207e-08
4.8092e-08
4.40931e-08
2.21709e-08
3.17462e-08
3.17359e-08
2.83577e-08
1.32616e-08
3.40212e-08
3.08531e-08
1.86705e-08
8.12689e-09
1.13998e-08
1.59578e-08
2.08104e-08
2.43155e-08
2.80837e-10
2.03051e-07
1.89632e-07
8.06962e-08
1.06999e-08
4.11857e-10
8.3946e-10
1.99649e-09
2.44311e-09
2.16282e-09
1.82159e-09
1.46174e-09
1.19418e-09
9.21694e-10
6.80729e-10
3.22623e-10
3.22482e-08
2.95773e-08
2.60198e-08
2.65025e-08
2.96805e-08
3.20213e-08
3.33119e-08
3.97072e-08
3.68387e-08
3.16795e-08
3.98294e-08
3.80688e-08
1.89568e-08
2.42354e-08
3.46059e-08
2.84908e-08
1.22947e-08
1.90087e-08
1.1507e-08
1.88405e-08
6.00689e-10
3.05432e-09
1.38077e-08
3.44929e-10
1.14602e-10
9.43144e-10
4.08894e-09
8.27832e-09
1.02658e-08
9.45713e-09
7.33946e-09
5.25523e-09
3.71974e-09
2.62703e-09
1.98176e-09
1.48388e-09
1.21552e-09
8.90772e-10
6.53547e-10
2.72879e-10
2.56584e-08
2.42184e-08
2.34127e-08
2.23052e-08
2.53917e-08
2.9251e-08
2.88397e-08
3.05495e-08
3.13296e-08
3.22688e-08
2.14851e-08
2.89158e-08
2.91085e-08
2.1456e-08
1.74474e-08
2.23667e-08
1.96934e-08
1.57745e-08
5.60894e-09
1.91938e-08
1.03805e-08
1.77445e-09
5.47339e-09
6.74325e-08
9.4987e-08
1.84602e-08
1.27835e-09
3.48919e-09
5.38023e-09
5.48015e-09
5.03993e-09
4.2886e-09
3.39009e-09
2.67232e-09
2.05262e-09
1.41461e-09
5.66052e-10
1.46613e-10
5.3155e-10
3.38438e-10
2.30695e-08
2.25202e-08
2.0687e-08
2.12674e-08
2.19619e-08
2.24344e-08
2.57474e-08
2.62164e-08
2.46285e-08
2.74839e-08
2.56462e-08
2.00517e-08
2.42703e-08
2.43482e-08
1.90716e-08
1.56679e-08
2.16542e-08
2.26259e-08
1.32393e-08
9.97397e-09
1.21405e-08
1.45499e-08
1.54943e-08
1.29722e-08
9.2103e-09
7.30279e-09
7.78488e-09
8.2744e-09
7.85185e-09
6.84196e-09
5.64939e-09
4.44124e-09
3.44996e-09
2.58473e-09
1.98219e-09
1.44791e-09
1.12107e-09
7.5816e-10
5.56828e-10
3.27283e-10
1.95799e-08
1.88036e-08
1.82328e-08
1.78494e-08
1.91539e-08
2.04968e-08
1.97768e-08
2.16598e-08
2.30193e-08
2.05128e-08
2.22938e-08
2.37196e-08
1.95632e-08
1.84435e-08
2.2708e-08
2.14707e-08
1.6618e-08
1.66512e-08
1.91725e-08
1.87645e-08
1.5401e-08
1.03896e-08
6.06088e-09
7.08325e-09
1.01054e-08
1.14965e-08
1.11145e-08
9.59977e-09
7.74342e-09
6.01138e-09
4.6152e-09
3.60322e-09
2.82408e-09
2.29032e-09
1.76768e-09
1.42661e-09
1.02087e-09
7.66128e-10
5.21492e-10
4.11118e-10
1.75143e-08
1.71054e-08
1.61937e-08
1.60269e-08
1.6224e-08
1.65255e-08
1.7607e-08
1.74653e-08
1.75928e-08
1.91719e-08
1.80561e-08
1.73074e-08
1.96218e-08
1.91687e-08
1.61976e-08
1.65422e-08
1.87643e-08
1.83227e-08
1.46189e-08
1.16103e-08
1.23669e-08
1.33848e-08
1.27506e-08
1.13462e-08
9.82123e-09
8.23614e-09
7.05704e-09
6.22596e-09
5.59644e-09
4.88374e-09
4.183e-09
3.4094e-09
2.75671e-09
2.11103e-09
1.65163e-09
1.20412e-09
9.44069e-10
6.55073e-10
5.34048e-10
4.28428e-10
1.54323e-08
1.48105e-08
1.4099e-08
1.37238e-08
1.39978e-08
1.42175e-08
1.41082e-08
1.47968e-08
1.52396e-08
1.50864e-08
1.60383e-08
1.64571e-08
1.56926e-08
1.6142e-08
1.72566e-08
1.67064e-08
1.53901e-08
1.55101e-08
1.61595e-08
1.5333e-08
1.34693e-08
1.14564e-08
9.63066e-09
8.81726e-09
9.02365e-09
9.02804e-09
8.50073e-09
7.50888e-09
6.32778e-09
5.12736e-09
4.05144e-09
3.14884e-09
2.40747e-09
1.8372e-09
1.37865e-09
1.0704e-09
8.13798e-10
6.69337e-10
5.56796e-10
5.06819e-10
1.38771e-08
1.32587e-08
1.24763e-08
1.19358e-08
1.17744e-08
1.17887e-08
1.19102e-08
1.2045e-08
1.24846e-08
1.31775e-08
1.32798e-08
1.3617e-08
1.45839e-08
1.48759e-08
1.44674e-08
1.47945e-08
1.52832e-08
1.50882e-08
1.40059e-08
1.26338e-08
1.18974e-08
1.16404e-08
1.11379e-08
1.00783e-08
8.87033e-09
7.61161e-09
6.43228e-09
5.33039e-09
4.47113e-09
3.67763e-09
3.06292e-09
2.43549e-09
1.9677e-09
1.49199e-09
1.20528e-09
9.06128e-10
7.79799e-10
6.11302e-10
5.82768e-10
5.17499e-10
1.25858e-08
1.1828e-08
1.1003e-08
1.03625e-08
1.01379e-08
1.0062e-08
1.00204e-08
1.03672e-08
1.08143e-08
1.12487e-08
1.18895e-08
1.23078e-08
1.23733e-08
1.2654e-08
1.2939e-08
1.27106e-08
1.21317e-08
1.16152e-08
1.1358e-08
1.08967e-08
1.00685e-08
9.06654e-09
8.04941e-09
7.06351e-09
6.39031e-09
5.88135e-09
5.38044e-09
4.68394e-09
3.95081e-09
3.13621e-09
2.43289e-09
1.75753e-09
1.28736e-09
8.72348e-10
6.56881e-10
4.47034e-10
3.86596e-10
2.85957e-10
3.05023e-10
2.64007e-10
1.14771e-08
1.07081e-08
9.9073e-09
9.1349e-09
8.71641e-09
8.59125e-09
8.52294e-09
8.51172e-09
8.55723e-09
8.37041e-09
7.51078e-09
6.21821e-09
4.91094e-09
3.49955e-09
2.0342e-09
1.08441e-09
6.45747e-10
3.96545e-10
2.45116e-10
1.62832e-10
1.24481e-10
1.18115e-10
1.5116e-10
1.92858e-10
2.1397e-10
1.86241e-10
1.29605e-10
6.29727e-11
2.88183e-11
9.52832e-12
4.35195e-12
1.29358e-12
1.03471e-12
6.08998e-13
1.18921e-12
9.87093e-13
2.2387e-12
1.99998e-12
3.91698e-12
3.32998e-12
2.62221e-09
2.20759e-09
1.93715e-09
1.72572e-09
1.70065e-09
1.75216e-09
1.66949e-09
1.51087e-09
1.27051e-09
8.65932e-10
4.64935e-10
1.93152e-10
3.9802e-11
5.78495e-13
9.47058e-12
5.34297e-11
1.11553e-10
1.65355e-10
1.79687e-10
1.38138e-10
7.57278e-11
3.07746e-11
9.31349e-12
2.23129e-12
5.32242e-13
2.33086e-13
1.11025e-13
5.37895e-14
4.29078e-14
1.17138e-13
2.09782e-13
3.34187e-13
4.08343e-13
4.14543e-13
3.94691e-13
2.97504e-13
2.66894e-13
1.65004e-13
1.61876e-13
7.37347e-14
2.09361e-11
1.89858e-11
2.06966e-11
2.2765e-11
2.72013e-11
3.33955e-11
3.52153e-11
3.24905e-11
2.71678e-11
1.82784e-11
8.41722e-12
1.98602e-12
9.41925e-14
3.04093e-13
2.96151e-12
9.25011e-12
1.67228e-11
2.06488e-11
1.85179e-11
1.23676e-11
6.61937e-12
2.97584e-12
1.03967e-12
2.48172e-13
2.8093e-14
1.13953e-16
5.0621e-15
1.77801e-14
2.89794e-14
2.81484e-14
2.98722e-14
2.21896e-14
2.12282e-14
1.36665e-14
1.28806e-14
8.1817e-15
7.8351e-15
4.77693e-15
4.28728e-15
2.11023e-15
3.00501e-14
2.03423e-14
3.07673e-14
5.40479e-14
9.2635e-14
1.24003e-13
1.36915e-13
1.46894e-13
1.25499e-13
6.24553e-14
1.38821e-14
9.50042e-16
1.54078e-14
1.21409e-13
3.22369e-13
4.74791e-13
4.77465e-13
3.40064e-13
1.62052e-13
4.86972e-14
7.62417e-15
3.05412e-16
3.87564e-16
2.0096e-15
3.59926e-15
3.43389e-15
2.32418e-15
1.69207e-15
1.37573e-15
1.24482e-15
9.84989e-16
8.36488e-16
5.61654e-16
4.24973e-16
2.49283e-16
1.5737e-16
9.53395e-17
4.33834e-17
4.15841e-17
2.96987e-17
)
;

boundaryField
{
    inlet
    {
        type            calculated;
        value           nonuniform List<scalar> 
20
(
1.4984e-34
6.13439e-33
7.75781e-33
9.45433e-34
2.04868e-33
1.3872e-33
1.8294e-33
1.97536e-33
2.14693e-33
2.1587e-33
1.73641e-33
9.05044e-34
1.4807e-33
1.88569e-33
1.27204e-33
1.84855e-33
6.69093e-34
7.1742e-33
5.68957e-33
1.46607e-34
)
;
    }
    outlet
    {
        type            calculated;
        value           nonuniform List<scalar> 
27
(
2.1842e-33
1.76181e-33
1.49314e-33
1.24305e-33
4.91881e-34
5.1315e-34
3.09617e-36
1.4487e-39
1.66905e-34
7.61814e-34
1.29693e-33
1.80539e-33
2.06373e-33
2.50367e-33
2.59598e-33
1.90641e-33
6.30886e-35
5.4617e-37
3.05752e-40
6.30185e-39
8.7035e-39
1.82642e-39
3.25898e-37
5.45677e-35
2.38396e-33
2.56327e-33
2.32391e-33
)
;
    }
    lowerWall
    {
        type            fixedValue;
        value           uniform 0;
    }
    upperWall
    {
        type            fixedValue;
        value           uniform 0;
    }
    defaultFaces
    {
        type            empty;
    }
}


// ************************************************************************* //
