/*--------------------------------*- C++ -*----------------------------------*\
| =========                 |                                                 |
| \\      /  F ield         | OpenFOAM: The Open Source CFD Toolbox           |
|  \\    /   O peration     | Version:  2112                                  |
|   \\  /    A nd           | Website:  www.openfoam.com                      |
|    \\/     M anipulation  |                                                 |
\*---------------------------------------------------------------------------*/
FoamFile
{
    version     2.0;
    format      ascii;
    arch        "LSB;label=32;scalar=64";
    class       volScalarField;
    location    "0.25";
    object      p;
}
// * * * * * * * * * * * * * * * * * * * * * * * * * * * * * * * * * * * * * //

dimensions      [0 2 -2 0 0 0 0];

internalField   nonuniform List<scalar> 
1880
(
0.00321331
0.00307585
0.00298245
0.00293597
0.00290701
0.00288674
0.00286632
0.00284728
0.00282835
0.00281779
0.00280566
0.00279555
0.00278951
0.00278793
0.00278939
0.00279518
0.00280307
0.00281876
0.00283442
0.00286302
0.00290273
0.00295942
0.00303489
0.00313255
0.00324598
0.00338517
0.00355361
0.00372715
0.00393013
0.00415734
0.00303187
0.00299943
0.00295784
0.00292268
0.00289134
0.00287104
0.0028531
0.00283709
0.00281936
0.0028103
0.002798
0.00278491
0.00277925
0.0027769
0.00278131
0.00278132
0.00279042
0.00280092
0.00281787
0.00284307
0.0028795
0.00293755
0.00300126
0.00310269
0.00318532
0.00334409
0.00344269
0.00364644
0.00378882
0.00394131
0.0029983
0.00297766
0.0029469
0.0029161
0.00288607
0.00286403
0.00284716
0.00283013
0.00281314
0.00280303
0.00279205
0.0027762
0.00276917
0.00276771
0.00276908
0.00276591
0.00276996
0.00278245
0.00279799
0.00282034
0.00285207
0.00289536
0.00295259
0.00302126
0.00310029
0.00319503
0.00328841
0.0033949
0.00347427
0.00354508
0.00293998
0.00292952
0.00291232
0.00289236
0.00286818
0.00284845
0.00283321
0.00281589
0.0027991
0.00278944
0.00278009
0.00276245
0.00275364
0.00275039
0.00275086
0.00274421
0.00274492
0.00275432
0.00276372
0.00278362
0.00280125
0.00283898
0.00287616
0.00292791
0.00298215
0.0030426
0.00310174
0.00314944
0.00319337
0.00319284
0.00291097
0.00290441
0.00289281
0.00287776
0.00285701
0.0028383
0.00282406
0.00280566
0.00278856
0.00277756
0.00276926
0.0027494
0.00273901
0.00273306
0.0027307
0.00272118
0.0027178
0.00272216
0.00272766
0.00273912
0.0027499
0.00277336
0.002796
0.00282783
0.00285752
0.00288841
0.00291135
0.00292341
0.00291703
0.00287643
0.00288363
0.00287845
0.00286949
0.00285784
0.00284012
0.00282337
0.00281044
0.0027922
0.00277437
0.00276271
0.0027539
0.00273341
0.0027202
0.00271248
0.00270655
0.00269501
0.00268606
0.00268615
0.00268556
0.00268861
0.00269129
0.00269864
0.00271063
0.00271874
0.00273011
0.00273304
0.00272856
0.0027077
0.00266857
0.00259595
0.00286303
0.0028589
0.00285176
0.00284224
0.00282659
0.00281102
0.00279892
0.00278033
0.00276183
0.00274869
0.00273906
0.00271698
0.00270175
0.00269118
0.00268185
0.00266703
0.0026531
0.00264795
0.00264074
0.00263607
0.00262863
0.00262441
0.00262159
0.00261341
0.00260525
0.00258573
0.00255757
0.00251174
0.0024447
0.00235073
0.00284652
0.00284286
0.0028365
0.00282799
0.00281331
0.00279841
0.00278649
0.00276773
0.00274822
0.00273402
0.00272263
0.00269952
0.00268128
0.00266857
0.00265535
0.00263719
0.00261825
0.00260697
0.00259473
0.00258
0.00256548
0.00254788
0.00253356
0.002511
0.00248483
0.00244826
0.0023997
0.00233244
0.00224781
0.00213473
0.00283368
0.0028302
0.00282418
0.00281611
0.00280187
0.00278715
0.00277506
0.00275579
0.00273523
0.00271975
0.00270654
0.00268187
0.00266085
0.0026457
0.00262868
0.00260699
0.00258267
0.0025662
0.00254765
0.00252507
0.00250211
0.00247404
0.00244857
0.00241324
0.00237237
0.00232086
0.00225536
0.00217299
0.00207262
0.0019468
0.0028243
0.0028208
0.00281478
0.00280667
0.00279231
0.00277731
0.0027646
0.00274461
0.0027227
0.00270594
0.00269065
0.00266431
0.00264039
0.00262255
0.00260212
0.00257617
0.00254753
0.00252501
0.00250145
0.00247092
0.00244034
0.00240352
0.00236707
0.00232206
0.00226786
0.00220377
0.00212625
0.00203047
0.00191948
0.00178483
0.00281833
0.00281464
0.00280834
0.00279978
0.00278482
0.00276909
0.00275539
0.00273436
0.00271091
0.00269273
0.00267531
0.00264715
0.00262025
0.00259977
0.00257586
0.00254606
0.00251285
0.0024852
0.00245628
0.00241909
0.00238121
0.00233666
0.00229096
0.00223715
0.00217223
0.00209833
0.00201069
0.0019055
0.0017864
0.0016458
0.00281587
0.00281185
0.00280499
0.00279566
0.00277969
0.00276284
0.00274783
0.00272552
0.0027004
0.00268071
0.00266116
0.00263096
0.00260122
0.00257788
0.00255093
0.00251705
0.00247995
0.00244718
0.00241329
0.00237036
0.00232549
0.00227467
0.00222059
0.00215935
0.00208626
0.00200382
0.00190918
0.00179696
0.00167173
0.00152758
0.00281716
0.00281256
0.00280474
0.00279403
0.00277646
0.00275791
0.00274116
0.00271729
0.00269044
0.0026693
0.00264761
0.00261534
0.00258277
0.0025568
0.0025269
0.00248934
0.00244842
0.00241113
0.00237254
0.00232459
0.0022736
0.00221719
0.00215632
0.00208882
0.00200929
0.00192049
0.00182027
0.00170333
0.00157381
0.00142741
0.00282304
0.00281781
0.00280888
0.00279654
0.00277703
0.00275655
0.00273784
0.00271223
0.00268347
0.00266066
0.00263669
0.00260197
0.00256665
0.00253794
0.00250526
0.00246404
0.00241954
0.00237804
0.00233501
0.00228273
0.00222628
0.00216512
0.00209881
0.00202598
0.00194189
0.00184809
0.00174387
0.00162392
0.00149136
0.00134398
0.00283333
0.00282659
0.00281527
0.00279984
0.00277725
0.00275407
0.00273299
0.00270551
0.00267524
0.00265096
0.00262478
0.00258776
0.00255017
0.00251937
0.00248437
0.00244003
0.00239235
0.00234724
0.00230017
0.00224402
0.00218292
0.00211774
0.00204719
0.00197024
0.00188272
0.00178548
0.0016784
0.00155679
0.00142267
0.00127483
0.0028527
0.00284439
0.00283006
0.00281055
0.00278408
0.00275773
0.00273393
0.0027046
0.00267298
0.00264706
0.00261819
0.00257876
0.00253913
0.00250605
0.00246801
0.00242002
0.00236918
0.0023207
0.00226986
0.00221014
0.00214501
0.00207636
0.00200259
0.0019224
0.0018326
0.0017332
0.00162435
0.00150215
0.00136739
0.00121971
0.00287353
0.00286095
0.00284086
0.00281561
0.00278518
0.00275626
0.0027305
0.00269999
0.00266738
0.00263965
0.002608
0.00256637
0.00252527
0.00249011
0.00244975
0.00239941
0.00234643
0.00229514
0.00224063
0.00217752
0.00210919
0.00203801
0.00196228
0.00188025
0.00178942
0.00168931
0.00157983
0.00145788
0.00132351
0.00117632
0.00292703
0.00290399
0.00286998
0.00283316
0.00279619
0.00276382
0.00273567
0.00270378
0.00266975
0.00263927
0.00260431
0.00256119
0.00251947
0.00248227
0.00243896
0.00238634
0.00233193
0.00227805
0.00221939
0.00215269
0.00208142
0.0020075
0.00193007
0.00184683
0.00175573
0.00165573
0.00154631
0.00142519
0.0012918
0.00114589
0.00295596
0.00292073
0.00287616
0.00283422
0.00279577
0.00276344
0.00273418
0.00270104
0.00266601
0.00263387
0.00259677
0.00255261
0.00250968
0.00246985
0.00242469
0.0023716
0.00231562
0.00225671
0.00219182
0.00212123
0.00204799
0.00197435
0.00189821
0.00181629
0.00172725
0.00162946
0.00152144
0.00140205
0.00126987
0.00112446
0.00313572
0.0029953
0.00289816
0.00284478
0.00280857
0.00277594
0.0027432
0.00270671
0.00266944
0.00263472
0.0025966
0.00255378
0.00251071
0.00246764
0.00242003
0.00236733
0.00231164
0.00225157
0.00218516
0.0021136
0.00203909
0.00196359
0.00188536
0.00180299
0.00171428
0.00161729
0.00151006
0.00139206
0.00126181
0.00111917
0.0042399
0.00392382
0.00346636
0.0029298
0.00231755
0.00154903
0.000847738
-0.000121878
-0.00141566
-0.00330303
0.00401335
0.00363688
0.00297344
0.00241585
0.00182526
0.00108281
0.000363738
-0.000658062
-0.0019441
-0.00337635
0.00354971
0.00315877
0.00264389
0.00222408
0.00162524
0.000982215
0.000161499
-0.000689799
-0.00181832
-0.00269564
0.00317233
0.00284431
0.00234971
0.00182522
0.00131011
0.000635676
-8.60294e-05
-0.000916729
-0.00188207
-0.00270501
0.00280851
0.00248565
0.00203634
0.00160547
0.00111183
0.000515313
-0.000172283
-0.000914971
-0.00175106
-0.0024511
0.0025067
0.00220011
0.00181525
0.00134848
0.000893226
0.000313323
-0.00031627
-0.000991775
-0.00171096
-0.00235444
0.00223656
0.00195178
0.00157987
0.00116402
0.000735196
0.000218832
-0.000364081
-0.000970738
-0.00158683
-0.00215968
0.00200609
0.00173401
0.00139747
0.000996464
0.000588772
0.000110894
-0.000423053
-0.000979448
-0.00151572
-0.0020279
0.00180511
0.00155317
0.00123223
0.000863055
0.000479551
4.58446e-05
-0.000438628
-0.000938388
-0.00141121
-0.0018698
0.00163471
0.00139634
0.00109622
0.000750719
0.000389937
-1.18583e-05
-0.000453793
-0.000908362
-0.0013328
-0.00174236
0.00148916
0.00126486
0.000982281
0.000660964
0.000321789
-4.88427e-05
-0.000450114
-0.00085916
-0.00124332
-0.00161439
0.00136714
0.00115386
0.000888619
0.00058767
0.000269725
-7.53084e-05
-0.000442752
-0.000815037
-0.00116689
-0.00150438
0.00126484
0.00106104
0.000811895
0.000530465
0.000230996
-9.06596e-05
-0.000427306
-0.000766406
-0.00109079
-0.00140198
0.00118098
0.000984904
0.000750438
0.000485759
0.000203804
-9.70575e-05
-0.000408724
-0.000721669
-0.00102321
-0.00131226
0.00111191
0.000922288
0.000700617
0.000451495
0.000185188
-9.73187e-05
-0.00038775
-0.000678641
-0.000960908
-0.00123214
0.00105804
0.000873807
0.000663069
0.000427328
0.000174968
-9.15204e-05
-0.000365064
-0.000639101
-0.000905952
-0.00116271
0.00101505
0.000834841
0.000632951
0.00040905
0.000169289
-8.33412e-05
-0.000342826
-0.000603314
-0.000857784
-0.00110321
0.000986638
0.000810049
0.000614813
0.000400017
0.000170202
-7.15744e-05
-0.000320504
-0.000571562
-0.000817338
-0.0010543
0.000965519
0.000791297
0.00060139
0.000394848
0.000173943
-5.88754e-05
-0.000298783
-0.000542129
-0.000782098
-0.00101318
0.00096341
0.000791166
0.000603132
0.000399337
0.000181717
-4.7495e-05
-0.000283682
-0.00052387
-0.000761498
-0.000993055
-0.00567645
-0.00583652
-0.00597453
-0.00656664
-0.00862118
-0.0112929
-0.0130767
-0.0134374
-0.0122397
-0.00980586
-0.00664067
-0.00338637
-0.000620942
0.00132159
0.00244664
0.0029114
0.00293359
0.00273514
0.00243663
0.00211867
0.00182086
0.00155872
0.00133454
0.00114255
0.000976729
0.000833374
0.000709539
0.000602937
0.000511416
0.000432995
0.000365582
0.0003074
0.0002566
0.000211813
0.000171694
0.000135336
0.000101866
7.06993e-05
4.13807e-05
1.33909e-05
-0.00579246
-0.00594691
-0.00607485
-0.00697924
-0.00947952
-0.0122729
-0.014008
-0.0143406
-0.0129991
-0.0104502
-0.007189
-0.00384127
-0.000977927
0.00106865
0.00224477
0.00276344
0.00281929
0.00264585
0.00236681
0.00206309
0.00177652
0.00152354
0.00130672
0.00112052
0.000959563
0.000820064
0.000699516
0.00059575
0.000506524
0.000429883
0.000363773
0.000306458
0.000256216
0.000211734
0.000171815
0.000135534
0.000102119
7.0937e-05
4.15728e-05
1.35301e-05
-0.00539915
-0.00567247
-0.00634487
-0.00791203
-0.0108799
-0.0137565
-0.0155064
-0.0157611
-0.0143212
-0.0115451
-0.00818908
-0.00471941
-0.00166078
0.000525828
0.00181257
0.00241411
0.0025404
0.0024242
0.00219392
0.00192789
0.00166986
0.00144047
0.00124435
0.00107545
0.00092824
0.000799625
0.00068703
0.000588606
0.000502739
0.00042794
0.000362894
0.000306153
0.000256247
0.000211967
0.000172207
0.000136033
0.000102687
7.15309e-05
4.20876e-05
1.38557e-05
-0.0053201
-0.00547401
-0.00605767
-0.00836273
-0.0119677
-0.0152665
-0.0171963
-0.0174825
-0.0157369
-0.0126981
-0.00919969
-0.00568574
-0.00249882
-0.000176192
0.00122812
0.00192877
0.00213673
0.00209361
0.00193442
0.0017303
0.00152339
0.00133353
0.00116501
0.00101585
0.000883387
0.000765581
0.000661157
0.000569076
0.000488256
0.000417543
0.000355482
0.000300881
0.000252505
0.000209356
0.00017047
0.000134929
0.000102026
7.1187e-05
4.19578e-05
1.38672e-05
-0.00510285
-0.00554918
-0.00618153
-0.00871453
-0.0125277
-0.0161678
-0.0182613
-0.0185232
-0.0165708
-0.0132585
-0.00974376
-0.00632985
-0.00323225
-0.000899137
0.000577609
0.0013762
0.00169212
0.00173062
0.00163656
0.00149036
0.00133482
0.00119059
0.00105992
0.000938527
0.000825393
0.000721713
0.000628017
0.000544133
0.000469494
0.00040335
0.000344657
0.000292491
0.000245986
0.000204255
0.00016663
0.000132138
0.000100136
6.99992e-05
4.1372e-05
1.37221e-05
-0.00517971
-0.0052604
-0.00593476
-0.00839137
-0.0123476
-0.0163104
-0.0185445
-0.0188076
-0.0167076
-0.013327
-0.00982586
-0.00657233
-0.00368378
-0.00147303
-5.34353e-05
0.000775927
0.00119699
0.00135239
0.00135431
0.00127329
0.00116299
0.00105552
0.000954807
0.000857184
0.000762601
0.00067292
0.00058982
0.000514096
0.000445874
0.00038484
0.000330351
0.000281712
0.000238093
0.00019866
0.000162451
0.000129077
9.79598e-05
6.86347e-05
4.05473e-05
1.34419e-05
-0.00527101
-0.00579415
-0.00556052
-0.00787717
-0.0113996
-0.0151245
-0.0173424
-0.017796
-0.0160744
-0.0129078
-0.00960121
-0.00656689
-0.00389433
-0.00181701
-0.000459066
0.000325658
0.000759629
0.000976247
0.00106412
0.0010613
0.00100293
0.000928472
0.000853534
0.000776523
0.000697352
0.0006196
0.000546481
0.000479208
0.000417909
0.000362431
0.000312236
0.000266815
0.000225613
0.000188138
0.000153876
0.000122414
9.31146e-05
6.54731e-05
3.88172e-05
1.29013e-05
-0.0054761
-0.00348209
-0.00500822
-0.00714138
-0.0101911
-0.0135008
-0.0156038
-0.0162263
-0.0149208
-0.0121263
-0.00910268
-0.00633414
-0.00395593
-0.00209421
-0.000798047
9.12013e-06
0.000466749
0.000702956
0.00081709
0.000854693
0.000842081
0.0008027
0.000750344
0.000690971
0.000627468
0.000562729
0.000499431
0.000439982
0.000385752
0.000336471
0.000291785
0.000251249
0.000214247
0.000180174
0.000148464
0.00011865
9.04108e-05
6.34451e-05
3.75834e-05
1.24771e-05
-0.00431867
-0.00495907
-0.00584559
-0.00702731
-0.00932744
-0.0120838
-0.0138407
-0.0144001
-0.0132945
-0.0108646
-0.00818111
-0.00576512
-0.00375825
-0.002223
-0.0011251
-0.000362651
0.000142547
0.000447524
0.000602094
0.000662419
0.000674984
0.000665424
0.000641649
0.000601025
0.000550521
0.000498539
0.000447584
0.00039871
0.000352129
0.000308487
0.000268273
0.000231005
0.00019651
0.000164729
0.000135408
0.000108224
8.26715e-05
5.83361e-05
3.4674e-05
1.15364e-05
-0.0038233
-0.00441141
-0.00515655
-0.00642254
-0.00829574
-0.010267
-0.0115691
-0.011956
-0.0110631
-0.00914214
-0.00706701
-0.00519151
-0.00358187
-0.00228436
-0.00132179
-0.000632166
-0.000147622
0.000178362
0.000374232
0.000468609
0.000506442
0.000515745
0.000501953
0.000477485
0.000452048
0.000422717
0.000387144
0.000348114
0.000310278
0.00027539
0.000242227
0.000211359
0.000182619
0.000155325
0.000129155
0.000103931
7.95962e-05
5.60526e-05
3.33061e-05
1.10659e-05
-0.00348165
-0.00414887
-0.00496337
-0.00598491
-0.0072792
-0.00857468
-0.00944153
-0.00966473
-0.00901393
-0.00761794
-0.00608663
-0.00467127
-0.00341164
-0.00232248
-0.00145236
-0.000811075
-0.000357216
-4.43729e-05
0.00015849
0.000279296
0.000347262
0.000378068
0.000381556
0.000370913
0.000353738
0.000334458
0.000315527
0.000296312
0.000273723
0.000246291
0.000216751
0.000188526
0.000161315
0.000136012
0.000112505
9.04812e-05
6.95185e-05
4.93007e-05
2.93949e-05
9.79252e-06
-0.00313667
-0.00380829
-0.00453258
-0.00531996
-0.00626009
-0.0071607
-0.0076995
-0.00778172
-0.00738144
-0.00646126
-0.00533416
-0.00422926
-0.00321025
-0.00230062
-0.00154918
-0.000980731
-0.000560724
-0.000255368
-4.81564e-05
8.57899e-05
0.000178243
0.000242867
0.00026819
0.000261264
0.000251345
0.000249438
0.000246515
0.000235876
0.000220563
0.000203884
0.000185787
0.000166822
0.00014748
0.000127491
0.000107209
8.69422e-05
6.69544e-05
4.7329e-05
2.82205e-05
9.38108e-06
-0.00287442
-0.00347739
-0.00411505
-0.00475625
-0.00549177
-0.00613433
-0.00648587
-0.00653024
-0.0062118
-0.00555921
-0.00471837
-0.00384484
-0.0030123
-0.00225508
-0.00161435
-0.00111016
-0.000715019
-0.000405384
-0.000180363
-3.59377e-05
5.92269e-05
0.000129965
0.000175115
0.000203933
0.000225001
0.0002325
0.000224732
0.00020995
0.000195325
0.000177406
0.000159257
0.000140294
0.000121676
0.000103884
8.69387e-05
7.06956e-05
5.48515e-05
3.92232e-05
2.35051e-05
7.84715e-06
-0.0026294
-0.00315682
-0.00371883
-0.00426419
-0.00482859
-0.00529624
-0.00553709
-0.00554474
-0.0053174
-0.00484429
-0.00420478
-0.00351189
-0.00283284
-0.00219891
-0.00164124
-0.00118752
-0.000829799
-0.000550869
-0.000334133
-0.000171209
-5.65914e-05
1.81179e-05
6.50022e-05
8.77976e-05
9.624e-05
0.000107596
0.000127273
0.000147693
0.000154385
0.0001506
0.000140461
0.000127548
0.000113625
9.90834e-05
8.40663e-05
6.87099e-05
5.3255e-05
3.78228e-05
2.26492e-05
7.53394e-06
-0.00242594
-0.00288115
-0.00336849
-0.00383164
-0.00428452
-0.00464692
-0.0048283
-0.00482466
-0.00463996
-0.00427521
-0.00378705
-0.00323734
-0.0026744
-0.00213873
-0.0016625
-0.00125978
-0.000927602
-0.000661823
-0.000455459
-0.000295398
-0.000173836
-7.35847e-05
-2.15353e-06
2.9541e-05
4.44826e-05
6.00088e-05
8.00039e-05
9.37607e-05
9.91946e-05
9.90073e-05
9.50052e-05
8.82809e-05
7.98963e-05
7.05908e-05
6.07464e-05
5.05371e-05
3.9941e-05
2.89841e-05
1.75337e-05
5.87461e-06
-0.00224125
-0.00263556
-0.00305487
-0.00345295
-0.00381693
-0.0041023
-0.00425309
-0.00425172
-0.0041075
-0.00382245
-0.00343007
-0.00298501
-0.00252642
-0.00207823
-0.00166423
-0.00130351
-0.000999023
-0.000746867
-0.000544244
-0.000387893
-0.000269226
-0.000179334
-0.000110058
-5.54594e-05
-8.57343e-06
3.24715e-05
6.08251e-05
7.79823e-05
8.66239e-05
8.93104e-05
8.78799e-05
8.35877e-05
7.72378e-05
6.92855e-05
6.0088e-05
4.99323e-05
3.91803e-05
2.80616e-05
1.69134e-05
5.62891e-06
-0.00207535
-0.00242121
-0.00278341
-0.00312629
-0.00343474
-0.0036708
-0.00379241
-0.00379577
-0.00368442
-0.00345822
-0.00314241
-0.00278034
-0.00239878
-0.00201692
-0.00165813
-0.00133969
-0.00106619
-0.000838418
-0.00064772
-0.000487634
-0.000356083
-0.000250798
-0.000174688
-0.000116723
-7.49729e-05
-4.24275e-05
-1.49893e-05
6.83396e-06
2.26284e-05
3.31314e-05
3.92792e-05
4.19662e-05
4.19988e-05
4.00284e-05
3.65237e-05
3.18103e-05
2.60572e-05
1.9442e-05
1.19828e-05
4.04249e-06
-0.0019256
-0.00223233
-0.00254662
-0.00284622
-0.00310763
-0.0033038
-0.00341476
-0.00342238
-0.00333202
-0.00315497
-0.00290375
-0.00260228
-0.00227938
-0.00195664
-0.00164932
-0.00136697
-0.00111249
-0.000890406
-0.000706555
-0.00055692
-0.000434788
-0.000335508
-0.000249538
-0.00017793
-0.00011772
-6.9003e-05
-3.11686e-05
-3.25459e-06
1.63345e-05
2.93791e-05
3.73798e-05
4.14309e-05
4.23624e-05
4.07692e-05
3.71816e-05
3.20218e-05
2.577e-05
1.87624e-05
1.14359e-05
3.80591e-06
-0.00179092
-0.00206768
-0.0023455
-0.00260808
-0.00283791
-0.00301164
-0.00310447
-0.00311823
-0.00305213
-0.00290629
-0.00269849
-0.00245232
-0.00218371
-0.00190586
-0.00163483
-0.00138298
-0.00115623
-0.00095756
-0.000784795
-0.000633456
-0.000503993
-0.000394846
-0.000305868
-0.0002332
-0.000176395
-0.000130403
-9.24152e-05
-6.17817e-05
-3.78182e-05
-1.9511e-05
-5.89393e-06
3.83176e-06
1.03441e-05
1.42079e-05
1.58916e-05
1.57736e-05
1.41306e-05
1.12379e-05
7.22315e-06
2.47434e-06
-0.00167115
-0.00192411
-0.00217212
-0.00240553
-0.00260787
-0.00276018
-0.00284795
-0.0028657
-0.00281462
-0.00269923
-0.00253053
-0.00232482
-0.00209597
-0.00185726
-0.00162226
-0.00140035
-0.00119266
-0.0010008
-0.00083192
-0.000688067
-0.000564013
-0.000458103
-0.000365161
-0.00028536
-0.000216799
-0.000159104
-0.000111857
-7.42577e-05
-4.51113e-05
-2.30957e-05
-6.94062e-06
4.37747e-06
1.17231e-05
1.57611e-05
1.71488e-05
1.64124e-05
1.41339e-05
1.07247e-05
6.71091e-06
2.23299e-06
-0.00156546
-0.00180018
-0.00202576
-0.00223524
-0.00241697
-0.00255518
-0.00263563
-0.00265731
-0.00262129
-0.0025283
-0.00238818
-0.00221607
-0.0020235
-0.00181926
-0.00161254
-0.00141208
-0.00122267
-0.00104835
-0.000891093
-0.000749406
-0.000622605
-0.000509708
-0.000411813
-0.000329163
-0.000260569
-0.000203893
-0.000156811
-0.000118102
-8.66604e-05
-6.14434e-05
-4.15171e-05
-2.60828e-05
-1.43936e-05
-5.92864e-06
-1.91615e-07
3.261e-06
4.79946e-06
4.79803e-06
3.47694e-06
1.24503e-06
-0.0014733
-0.00169394
-0.00190196
-0.00209264
-0.0022568
-0.00238298
-0.00245943
-0.00248449
-0.00245914
-0.00238481
-0.00227004
-0.00212675
-0.00196292
-0.0017853
-0.00160404
-0.0014269
-0.00125534
-0.0010901
-0.000935338
-0.000795496
-0.000670547
-0.000558633
-0.000459764
-0.000372629
-0.000297171
-0.00023179
-0.000176493
-0.000130958
-9.41822e-05
-6.50233e-05
-4.23198e-05
-2.5136e-05
-1.2664e-05
-4.09667e-06
1.32973e-06
4.20203e-06
5.16469e-06
4.63787e-06
3.21862e-06
1.08077e-06
-0.00139407
-0.00160417
-0.00179897
-0.00197547
-0.00212702
-0.00224247
-0.00231465
-0.00234196
-0.00232562
-0.00226713
-0.00217277
-0.00205197
-0.00191239
-0.00176071
-0.001603
-0.00144345
-0.00128482
-0.00113021
-0.000983825
-0.000847439
-0.000720642
-0.000604164
-0.000499019
-0.000407207
-0.00032862
-0.000262237
-0.000206958
-0.000160929
-0.000122887
-9.18583e-05
-6.6873e-05
-4.69505e-05
-3.08802e-05
-1.90001e-05
-1.04914e-05
-4.71282e-06
-1.14676e-06
6.90553e-07
1.09297e-06
4.52775e-07
-0.00132741
-0.00152999
-0.00171467
-0.00187928
-0.00201941
-0.00212679
-0.00219563
-0.00222497
-0.00221567
-0.00216922
-0.0020919
-0.00199211
-0.00187485
-0.00174365
-0.00160435
-0.00146194
-0.00131806
-0.00117333
-0.00103043
-0.000893034
-0.000763791
-0.000644482
-0.000536813
-0.000441387
-0.000357511
-0.000284967
-0.000222861
-0.000171442
-0.000129054
-9.46649e-05
-6.72142e-05
-4.59158e-05
-3.02739e-05
-1.8506e-05
-1.00778e-05
-4.42137e-06
-1.00733e-06
6.55643e-07
1.00341e-06
4.32324e-07
-0.00127325
-0.00147137
-0.00164986
-0.00180595
-0.00193609
-0.00203581
-0.00210122
-0.00213118
-0.00212656
-0.0020903
-0.00202794
-0.00194523
-0.00184647
-0.00173522
-0.00161491
-0.00148698
-0.0013523
-0.00121313
-0.00107309
-0.000935684
-0.000804058
-0.000680661
-0.00056784
-0.000466995
-0.000379004
-0.000303812
-0.000240539
-0.00018736
-0.000143567
-0.000107915
-7.92248e-05
-5.64991e-05
-3.87206e-05
-2.51327e-05
-1.50819e-05
-8.01921e-06
-3.41606e-06
-8.00716e-07
2.71997e-07
2.4493e-07
-0.00122876
-0.00142412
-0.00159837
-0.00175
-0.00187421
-0.0019677
-0.00202963
-0.00205939
-0.00205794
-0.00202934
-0.00197846
-0.00190994
-0.00182811
-0.00173566
-0.00163242
-0.00151782
-0.0013925
-0.0012583
-0.00111838
-0.000977126
-0.000839455
-0.000709755
-0.000591182
-0.000485743
-0.000393855
-0.000315148
-0.000248306
-0.000192389
-0.000146336
-0.000108979
-7.90311e-05
-5.54878e-05
-3.73386e-05
-2.37273e-05
-1.38202e-05
-6.93846e-06
-2.51763e-06
-2.00384e-08
8.7312e-07
5.83835e-07
-0.00121113
-0.00140597
-0.00157712
-0.00172421
-0.00184433
-0.00193476
-0.00199474
-0.00202401
-0.00202388
-0.00199833
-0.0019523
-0.00189029
-0.00181573
-0.00173028
-0.00163366
-0.00152498
-0.00140415
-0.00127267
-0.00113384
-0.000992439
-0.000853914
-0.000722909
-0.000602508
-0.000494966
-0.000401068
-0.000320619
-0.000252707
-0.000196201
-0.00014972
-0.000112002
-8.17144e-05
-5.78365e-05
-3.92729e-05
-2.52315e-05
-1.48614e-05
-7.61251e-06
-2.8633e-06
-1.71641e-07
8.41195e-07
6.39041e-07
)
;

boundaryField
{
    inlet
    {
        type            zeroGradient;
    }
    outlet
    {
        type            fixedValue;
        value           uniform 0;
    }
    lowerWall
    {
        type            zeroGradient;
    }
    upperWall
    {
        type            zeroGradient;
    }
    defaultFaces
    {
        type            empty;
    }
}


// ************************************************************************* //
