/*--------------------------------*- C++ -*----------------------------------*\
| =========                 |                                                 |
| \\      /  F ield         | OpenFOAM: The Open Source CFD Toolbox           |
|  \\    /   O peration     | Version:  2112                                  |
|   \\  /    A nd           | Website:  www.openfoam.com                      |
|    \\/     M anipulation  |                                                 |
\*---------------------------------------------------------------------------*/
FoamFile
{
    version     2.0;
    format      ascii;
    arch        "LSB;label=32;scalar=64";
    class       volScalarField;
    location    "0.49";
    object      nut;
}
// * * * * * * * * * * * * * * * * * * * * * * * * * * * * * * * * * * * * * //

dimensions      [0 2 -1 0 0 0 0];

internalField   nonuniform List<scalar> 
1880
(
3.40686e-11
3.86798e-12
4.42049e-13
2.0004e-14
5.68403e-14
3.27109e-14
3.27859e-14
5.44837e-15
1.52784e-14
2.9467e-15
6.53896e-15
1.06315e-14
4.79e-15
5.24255e-14
2.61404e-14
3.45364e-14
6.32372e-14
1.02808e-13
2.50545e-13
6.31152e-13
8.50002e-13
1.95123e-12
7.16923e-12
1.55582e-11
1.72207e-11
6.73952e-11
1.06707e-10
3.14719e-10
1.03415e-10
1.44036e-09
6.99315e-09
5.59327e-09
1.47932e-09
8.37552e-11
1.5679e-10
3.5401e-12
7.70628e-11
1.17218e-11
4.63283e-11
2.00239e-11
3.93265e-11
4.14973e-11
4.51032e-11
1.59781e-11
4.52941e-11
2.55782e-12
1.30574e-11
6.06712e-11
2.11952e-11
8.89438e-11
2.69822e-10
5.32903e-11
4.505e-10
3.52592e-10
4.45079e-10
8.77651e-10
9.97072e-10
1.63038e-09
1.3849e-09
8.1517e-10
1.2194e-09
4.91985e-09
5.42372e-10
5.38826e-10
1.11201e-09
9.34218e-10
2.99138e-10
6.63008e-09
3.57054e-09
7.43075e-09
2.9421e-09
8.13792e-09
1.31734e-09
4.12492e-09
2.12434e-09
8.3543e-12
3.71507e-09
1.2525e-09
1.15444e-10
6.1794e-09
1.06263e-09
1.97343e-09
7.8711e-09
3.37981e-09
4.98522e-09
9.19383e-09
7.69582e-09
5.80028e-09
1.30466e-08
7.31821e-09
4.47983e-09
1.24361e-09
1.42371e-08
3.19518e-10
4.87621e-09
1.67141e-10
3.52746e-09
1.57245e-09
1.72887e-08
1.85297e-09
5.36462e-09
2.31419e-10
3.45812e-10
8.17909e-10
3.00418e-08
2.46072e-09
3.51533e-08
5.05473e-09
9.83725e-10
8.78668e-09
2.50585e-09
7.79897e-09
4.04991e-09
1.02482e-08
1.15651e-08
1.47143e-08
1.69105e-08
1.80283e-08
2.43297e-08
1.55115e-08
9.29553e-09
3.01842e-09
1.92178e-10
2.4777e-09
4.83487e-10
3.18154e-09
9.41181e-10
4.32245e-09
1.87002e-08
3.80487e-09
5.78611e-09
1.88615e-09
2.49819e-11
1.80212e-09
2.76464e-08
1.93506e-09
3.68633e-08
4.34598e-09
1.68357e-08
7.49481e-09
1.44163e-08
8.15741e-09
3.63385e-10
1.07316e-08
3.14001e-09
1.48919e-08
8.99536e-09
1.90357e-08
1.91096e-08
2.65196e-08
1.09297e-09
7.76584e-10
7.7012e-10
3.84886e-10
2.23241e-10
7.32158e-11
2.13963e-10
1.4854e-09
3.79374e-10
2.38466e-09
2.6947e-09
1.69264e-09
7.42281e-10
2.63083e-09
8.08215e-10
5.98144e-09
9.65951e-10
4.73057e-09
6.04052e-10
5.82865e-09
1.63315e-09
7.23739e-09
4.98936e-09
1.04765e-08
8.99272e-09
1.25926e-08
1.28129e-08
1.6441e-08
1.8605e-08
2.00926e-08
5.08988e-12
3.70943e-10
1.14337e-10
1.81537e-10
1.04535e-09
3.17715e-11
1.36688e-09
4.90147e-10
8.93356e-10
1.10047e-09
2.02463e-09
7.02116e-10
1.93302e-09
6.68476e-10
1.845e-09
1.90364e-09
1.75631e-09
3.21186e-09
2.30166e-09
4.93132e-09
4.14873e-09
6.09081e-09
6.93622e-09
8.24703e-09
9.43224e-09
1.13004e-08
1.27875e-08
1.47008e-08
1.67594e-08
2.04002e-08
4.8943e-11
4.99477e-11
7.09931e-10
7.53371e-10
2.06759e-09
7.57547e-10
2.33386e-09
1.89197e-09
1.81891e-09
2.41277e-09
2.7477e-09
1.73256e-09
2.64134e-09
1.76011e-09
3.10089e-09
2.93722e-09
3.45735e-09
3.26485e-09
4.00726e-09
4.96561e-09
5.84487e-09
6.17024e-09
8.08144e-09
8.59594e-09
1.06975e-08
1.09358e-08
1.34267e-08
1.43448e-08
1.73245e-08
1.74412e-08
1.25165e-10
1.10612e-10
1.4182e-09
1.2784e-09
2.58246e-09
1.0697e-09
2.79021e-09
1.34471e-09
2.27022e-09
1.8025e-09
2.77286e-09
1.79083e-09
2.85966e-09
1.97499e-09
3.48718e-09
2.88967e-09
3.74591e-09
3.63999e-09
4.4866e-09
4.98953e-09
6.2269e-09
6.16335e-09
8.09067e-09
8.62265e-09
1.03655e-08
1.07467e-08
1.27358e-08
1.38912e-08
1.60362e-08
1.74815e-08
3.76415e-10
7.81268e-10
2.04962e-09
1.78932e-09
2.523e-09
1.52598e-09
2.71222e-09
1.62618e-09
2.45699e-09
2.29666e-09
3.02123e-09
2.4057e-09
3.16541e-09
2.56558e-09
3.85631e-09
3.47101e-09
4.21169e-09
4.10941e-09
5.09865e-09
5.50078e-09
6.72255e-09
6.6078e-09
8.36939e-09
8.78149e-09
1.04536e-08
1.07488e-08
1.25768e-08
1.35309e-08
1.59371e-08
1.62655e-08
4.89077e-10
1.18089e-09
2.19651e-09
1.88146e-09
2.11826e-09
1.70593e-09
2.28413e-09
1.68643e-09
2.39346e-09
2.50525e-09
2.86625e-09
2.90488e-09
3.19845e-09
2.98918e-09
3.78663e-09
3.78401e-09
4.30512e-09
4.46342e-09
5.29351e-09
5.79447e-09
6.77305e-09
6.83788e-09
8.26438e-09
8.89238e-09
1.01288e-08
1.0638e-08
1.2188e-08
1.32516e-08
1.51402e-08
1.59106e-08
6.39997e-10
1.32607e-09
1.98074e-09
1.50356e-09
1.97524e-09
1.69907e-09
2.30938e-09
1.91434e-09
2.59189e-09
2.56006e-09
3.22419e-09
2.96912e-09
3.52615e-09
3.18627e-09
4.08492e-09
4.02543e-09
4.64589e-09
4.72329e-09
5.67788e-09
5.98697e-09
6.96578e-09
7.01581e-09
8.35067e-09
8.88371e-09
1.00816e-08
1.06087e-08
1.20659e-08
1.29137e-08
1.48205e-08
1.53523e-08
3.50916e-10
1.02504e-09
1.41881e-09
1.34951e-09
1.64017e-09
1.81623e-09
2.12227e-09
2.10047e-09
2.56498e-09
2.81871e-09
2.97607e-09
3.25941e-09
3.4172e-09
3.42922e-09
3.95854e-09
4.32817e-09
4.69884e-09
4.97367e-09
5.70768e-09
6.26288e-09
6.84073e-09
7.1759e-09
8.26024e-09
8.98964e-09
9.86234e-09
1.05069e-08
1.17786e-08
1.2659e-08
1.41783e-08
1.49035e-08
1.21264e-10
4.53072e-10
1.36332e-09
1.2416e-09
1.74468e-09
1.87042e-09
2.22048e-09
2.27959e-09
2.71278e-09
2.79604e-09
3.23879e-09
3.27268e-09
3.64629e-09
3.67649e-09
4.20341e-09
4.47279e-09
4.97628e-09
5.17257e-09
6.00402e-09
6.31373e-09
7.00031e-09
7.35251e-09
8.38837e-09
9.0136e-09
9.9045e-09
1.04892e-08
1.17137e-08
1.24585e-08
1.38499e-08
1.4603e-08
5.61357e-12
2.6444e-10
5.73925e-10
1.04393e-09
1.45169e-09
1.87453e-09
2.06805e-09
2.17592e-09
2.50258e-09
2.75587e-09
2.83929e-09
3.24723e-09
3.51265e-09
3.6586e-09
4.07703e-09
4.5765e-09
4.88597e-09
5.21733e-09
5.87609e-09
6.43358e-09
6.81869e-09
7.34919e-09
8.31131e-09
9.00952e-09
9.65519e-09
1.03157e-08
1.14067e-08
1.21911e-08
1.32931e-08
1.40687e-08
8.52535e-11
7.37497e-10
1.28104e-09
1.4444e-09
1.57694e-09
1.86207e-09
2.0001e-09
2.24108e-09
2.58654e-09
2.68845e-09
3.04279e-09
3.29667e-09
3.5325e-09
3.82103e-09
4.14418e-09
4.57812e-09
4.97908e-09
5.32261e-09
5.99722e-09
6.43655e-09
6.9181e-09
7.50398e-09
8.32967e-09
8.9499e-09
9.70058e-09
1.03209e-08
1.13128e-08
1.20335e-08
1.30534e-08
1.39041e-08
8.89315e-13
1.16491e-11
1.62431e-10
7.34807e-10
1.10496e-09
1.41166e-09
1.28578e-09
1.42643e-09
1.73446e-09
2.10553e-09
2.1999e-09
2.95116e-09
3.23217e-09
3.49629e-09
3.92028e-09
4.50122e-09
4.79184e-09
5.2323e-09
5.80058e-09
6.37423e-09
6.76372e-09
7.33343e-09
8.0723e-09
8.62352e-09
9.20825e-09
9.9256e-09
1.08661e-08
1.15622e-08
1.23383e-08
1.30724e-08
2.15079e-09
2.49543e-09
1.63621e-09
1.56366e-09
1.89582e-09
2.27791e-09
3.16498e-09
3.49466e-09
3.32209e-09
2.94079e-09
1.90885e-09
1.21213e-09
6.20892e-10
4.19593e-10
1.61723e-10
1.0361e-10
2.89796e-11
8.67191e-12
1.97691e-12
4.47973e-12
3.2138e-12
2.82925e-13
2.24166e-13
5.61327e-12
2.08032e-11
5.54077e-11
1.01453e-10
2.09847e-10
3.27489e-10
6.53353e-10
5.13984e-09
5.61925e-09
9.83449e-10
1.50824e-10
3.05442e-11
4.94281e-12
4.38488e-13
5.40793e-14
2.98078e-13
2.9306e-13
7.63702e-13
1.36392e-12
8.70043e-13
9.13612e-13
1.75874e-12
1.96261e-12
2.74427e-12
3.51253e-12
3.66799e-12
3.79842e-12
4.92103e-12
7.47987e-12
7.47833e-12
5.57392e-12
5.3789e-12
6.45201e-12
6.49308e-12
5.99449e-12
4.55397e-12
2.62662e-12
3.46714e-11
4.69077e-12
2.50062e-13
1.39223e-14
6.49978e-14
2.38463e-14
3.69098e-15
3.0275e-16
3.17352e-17
5.23097e-16
5.59753e-16
9.37381e-16
1.18709e-15
4.1015e-15
3.19001e-15
2.21455e-15
5.7643e-15
1.90176e-14
1.67616e-14
1.17537e-14
1.40248e-14
3.48123e-14
5.62418e-14
5.75732e-14
4.36569e-14
3.5135e-14
3.54338e-14
4.7723e-14
4.44593e-14
1.68356e-14
3.10866e-09
1.60705e-09
4.75476e-10
2.82931e-10
6.12842e-11
1.67576e-10
6.50805e-11
2.33032e-10
5.99306e-10
2.29639e-09
3.51095e-09
9.86782e-09
8.35281e-09
1.27021e-08
1.88769e-09
9.27793e-09
1.5132e-09
2.4754e-08
3.056e-10
3.46033e-09
2.09162e-08
1.6844e-08
1.52534e-08
5.65766e-08
3.41118e-08
4.70362e-08
1.26134e-08
8.15494e-08
5.27577e-08
7.97342e-08
4.14817e-08
3.76421e-08
2.10366e-08
2.89563e-08
4.41464e-08
4.21756e-08
2.47087e-08
3.33757e-08
4.94169e-08
4.09118e-08
3.01877e-08
3.43693e-08
3.58288e-08
3.30125e-08
3.3476e-08
3.71185e-08
3.96262e-08
3.42716e-08
3.52811e-08
3.49256e-08
3.27611e-08
2.65707e-08
2.79564e-08
2.8092e-08
3.08304e-08
3.32534e-08
3.50497e-08
4.06382e-08
3.30364e-08
3.23213e-08
2.54434e-08
2.51784e-08
2.74026e-08
2.67051e-08
2.64614e-08
2.98876e-08
3.34489e-08
3.4887e-08
2.88051e-08
2.78839e-08
2.71798e-08
2.2495e-08
2.45611e-08
2.55221e-08
2.6964e-08
2.8167e-08
2.98483e-08
3.2946e-08
2.65957e-08
2.51295e-08
2.29413e-08
2.105e-08
2.35081e-08
2.39647e-08
2.44289e-08
2.59942e-08
2.72943e-08
2.88867e-08
2.53024e-08
2.29416e-08
2.23949e-08
1.98456e-08
2.1877e-08
2.25952e-08
2.34383e-08
2.42829e-08
2.49788e-08
2.63006e-08
2.36742e-08
2.10471e-08
1.99344e-08
1.86574e-08
2.07111e-08
2.15176e-08
2.17276e-08
2.25404e-08
2.34087e-08
2.42119e-08
2.20907e-08
1.96209e-08
1.8898e-08
1.78798e-08
1.95815e-08
2.02122e-08
2.0631e-08
2.1319e-08
2.18105e-08
2.20629e-08
2.07118e-08
1.88319e-08
1.73034e-08
1.70284e-08
1.85873e-08
1.92903e-08
1.94509e-08
2.00614e-08
2.04966e-08
2.0588e-08
1.93154e-08
1.76209e-08
1.666e-08
1.64551e-08
1.7735e-08
1.82837e-08
1.86171e-08
1.89855e-08
1.91735e-08
1.90852e-08
1.82185e-08
1.67714e-08
1.54676e-08
1.57524e-08
1.69039e-08
1.74754e-08
1.76682e-08
1.80823e-08
1.81092e-08
1.7879e-08
1.70155e-08
1.57971e-08
1.52094e-08
1.53343e-08
1.62964e-08
1.67143e-08
1.70065e-08
1.72236e-08
1.71589e-08
1.68919e-08
1.62782e-08
1.52178e-08
1.40229e-08
1.42723e-08
1.53806e-08
1.55926e-08
1.61271e-08
1.58492e-08
1.60134e-08
1.49118e-08
1.46599e-08
1.25618e-08
1.07704e-09
7.79576e-10
1.47634e-09
1.24268e-09
1.7065e-09
1.32461e-09
1.65066e-09
1.2569e-09
1.42984e-09
9.59634e-10
1.67102e-12
1.19204e-12
1.39702e-13
2.91785e-13
3.49959e-14
8.80972e-13
1.14477e-12
3.26636e-12
4.21941e-12
4.93652e-12
2.50102e-14
9.50395e-17
6.16028e-16
1.66523e-15
4.92291e-16
4.83363e-15
2.29123e-15
1.07643e-14
5.93815e-15
4.69177e-15
3.83953e-08
4.25505e-08
2.43118e-09
6.7467e-08
5.61555e-08
9.66299e-08
4.27628e-08
1.20886e-08
1.78489e-09
4.79269e-10
1.36574e-10
7.52343e-11
4.79561e-11
5.2661e-11
8.5782e-11
1.83673e-10
5.9996e-10
1.85847e-09
1.17474e-08
5.15222e-08
1.13868e-07
3.79281e-08
5.5268e-09
8.98273e-10
1.86126e-10
4.6977e-11
1.33507e-11
3.40916e-12
6.78043e-13
1.44915e-13
9.81519e-14
1.90126e-13
3.17741e-13
1.96642e-13
9.48332e-15
5.12637e-14
4.34925e-13
7.85703e-13
8.1537e-13
3.46126e-13
7.68357e-08
3.15162e-07
1.19976e-09
2.65439e-08
4.22027e-09
2.04026e-08
1.50517e-07
1.2452e-07
2.7657e-08
1.34829e-07
5.70075e-07
8.93495e-08
1.83272e-09
5.20851e-10
1.81548e-09
8.04367e-09
2.32404e-08
2.84403e-08
4.38464e-08
5.58412e-08
6.06353e-08
5.63477e-08
4.86209e-08
3.85451e-08
2.8312e-08
1.91934e-08
1.12221e-08
5.29749e-09
1.88695e-09
5.71219e-10
1.65607e-10
7.17595e-11
4.11067e-11
3.98504e-11
2.32868e-11
1.04302e-11
7.83756e-13
8.14343e-13
2.32176e-12
4.28292e-12
6.42492e-08
8.50397e-07
1.44345e-06
5.55712e-08
2.62927e-08
1.24461e-07
6.17185e-10
1.28535e-07
3.73768e-07
7.52029e-07
5.1631e-07
1.22751e-07
1.77588e-08
5.73889e-10
5.34543e-12
7.7124e-12
1.24581e-09
5.71678e-09
1.54015e-08
3.00787e-08
4.38431e-08
5.0305e-08
4.91082e-08
4.38181e-08
3.75342e-08
3.24201e-08
2.88987e-08
2.42486e-08
1.75331e-08
1.05911e-08
5.56176e-09
3.5509e-09
1.83857e-09
1.29884e-09
4.40384e-10
1.97989e-10
8.33477e-11
8.39692e-12
2.82353e-11
3.51551e-14
9.67379e-08
7.23533e-07
4.76398e-07
4.58303e-08
8.42105e-08
6.90863e-08
3.87461e-07
7.18238e-07
7.63638e-07
1.07549e-06
8.4377e-07
2.67337e-07
2.8002e-08
3.41385e-09
1.18037e-10
7.16424e-12
7.42112e-12
1.29824e-09
7.53212e-09
2.07525e-08
3.76447e-08
5.2256e-08
5.68318e-08
5.33122e-08
4.60926e-08
3.75182e-08
3.12952e-08
2.74936e-08
2.278e-08
1.71627e-08
1.09687e-08
8.80315e-09
9.0381e-09
9.81471e-09
9.46089e-09
4.65234e-09
6.27919e-09
1.07649e-09
6.05966e-09
5.31878e-09
1.60122e-07
2.46928e-07
3.47769e-07
7.02574e-08
1.25332e-07
9.95086e-12
1.098e-06
9.38197e-07
8.51518e-07
1.13861e-06
1.0009e-06
4.49434e-07
7.0988e-08
7.75231e-09
1.05071e-09
4.3625e-10
8.47516e-11
4.91936e-11
3.39086e-09
1.70646e-08
3.17515e-08
4.64645e-08
5.63913e-08
5.44441e-08
4.45857e-08
3.13987e-08
2.04665e-08
1.1527e-08
3.23611e-09
1.39065e-09
4.89798e-10
3.9803e-09
8.56002e-10
3.2106e-09
7.54203e-10
1.91279e-09
2.87483e-10
1.51427e-10
1.04828e-11
1.59975e-12
1.41984e-09
7.9381e-10
3.57602e-08
1.52488e-07
1.28679e-07
7.5484e-09
1.85323e-07
3.42526e-07
6.71889e-07
1.13824e-06
1.11638e-06
6.02726e-07
1.64107e-07
3.21188e-08
7.61969e-09
3.44862e-09
1.1273e-09
8.46182e-13
1.93791e-09
2.23157e-08
4.70655e-08
5.27107e-08
5.25122e-08
4.42891e-08
2.63108e-08
5.42933e-09
7.83007e-12
3.27794e-09
2.0753e-08
5.33652e-09
1.83256e-10
1.41194e-09
3.36801e-09
2.86426e-09
2.57593e-09
1.00999e-09
2.10308e-13
6.80792e-11
1.44682e-08
3.01552e-14
1.31863e-09
4.22144e-09
1.28293e-07
2.57518e-07
1.97168e-07
6.2754e-09
3.75229e-07
6.25532e-07
8.21191e-07
1.10329e-06
1.09731e-06
6.26227e-07
2.3248e-07
8.69351e-08
3.76502e-08
1.88826e-08
7.89929e-09
1.86636e-10
2.21239e-09
2.81076e-08
6.06858e-08
5.85492e-08
4.64631e-08
3.32366e-08
2.15582e-08
1.16125e-08
3.78303e-09
2.11958e-09
2.57662e-09
3.45778e-09
6.46974e-09
8.70498e-09
9.15917e-09
1.97597e-09
3.38789e-11
5.00824e-09
3.39459e-09
1.4713e-10
1.4331e-08
5.46912e-10
2.0053e-08
1.12552e-08
6.81276e-09
3.14685e-08
2.46085e-07
1.66847e-07
2.91693e-09
1.38373e-07
8.95425e-07
1.53881e-06
1.58789e-06
1.09882e-06
5.43809e-07
2.98532e-07
1.70317e-07
5.38328e-08
9.94622e-09
9.74553e-11
1.01219e-08
5.59614e-08
6.07884e-08
3.69126e-08
2.64478e-08
2.64164e-08
2.73151e-08
2.65854e-08
2.54056e-08
2.2618e-08
1.86237e-08
1.45989e-08
1.40783e-08
1.65297e-08
1.30536e-08
8.96587e-09
6.3967e-10
7.76376e-10
2.55628e-09
4.67343e-09
5.22156e-09
3.20601e-09
7.56024e-07
9.66044e-09
1.02675e-08
9.87955e-09
1.03126e-08
2.65911e-09
7.62079e-15
3.66018e-08
4.09847e-07
1.11361e-06
1.40801e-06
1.20607e-06
7.60721e-07
4.56127e-07
2.92927e-07
1.20872e-07
1.99487e-09
1.24189e-08
5.73409e-08
7.26242e-08
5.52672e-08
3.91003e-08
3.57508e-08
3.53903e-08
3.19047e-08
2.78718e-08
2.74441e-08
2.55025e-08
1.79254e-08
8.8821e-09
4.77595e-09
9.42668e-09
1.20357e-08
1.0859e-08
7.28945e-09
4.72321e-09
4.07195e-09
3.78987e-09
4.0359e-09
7.51915e-10
1.18374e-08
3.79751e-07
4.13186e-08
1.65695e-08
9.92487e-09
6.42664e-12
2.09274e-08
1.84813e-07
6.08933e-07
1.04075e-06
1.29683e-06
1.1898e-06
8.69803e-07
7.11567e-07
4.87851e-07
2.80405e-08
1.99361e-08
6.76166e-08
6.26214e-08
6.56627e-08
5.62013e-08
4.58092e-08
4.09998e-08
3.72216e-08
3.32816e-08
2.4985e-08
1.97087e-08
2.11817e-08
2.07141e-08
1.67769e-08
9.79859e-09
7.98028e-09
6.16329e-09
2.82588e-11
2.73457e-13
5.16651e-08
5.56418e-09
1.00216e-08
2.63503e-09
4.49938e-09
1.97747e-08
3.34112e-08
6.38905e-09
6.38376e-08
1.29739e-08
1.08652e-10
8.0579e-08
5.55029e-07
9.19076e-07
1.09393e-06
1.13536e-06
1.07204e-06
8.70006e-07
3.59661e-07
1.6006e-09
5.31057e-08
6.96788e-08
6.62074e-08
5.51802e-08
4.98377e-08
4.48123e-08
3.92674e-08
3.56127e-08
3.18331e-08
2.61943e-08
1.71417e-08
1.54938e-08
1.59306e-08
7.86704e-09
6.32541e-11
3.57041e-08
4.92227e-08
1.47963e-08
1.00562e-07
6.12146e-08
4.00932e-08
1.27313e-09
6.17444e-09
6.47883e-09
1.42021e-09
4.95333e-08
2.56737e-08
2.40274e-08
3.01906e-08
5.71006e-08
5.46492e-08
2.43394e-08
5.82034e-10
7.57714e-09
2.28013e-08
5.55309e-08
1.19563e-09
1.45133e-08
4.77535e-08
6.49409e-08
6.6045e-08
5.7719e-08
5.30836e-08
4.85006e-08
4.13614e-08
3.79266e-08
3.71433e-08
3.36404e-08
2.8852e-08
2.52382e-08
1.62505e-08
7.4843e-09
6.00666e-09
1.25762e-08
7.50052e-09
8.09611e-09
2.38185e-09
6.69498e-09
7.44946e-09
5.2907e-09
4.34376e-09
3.26791e-09
2.72888e-08
8.40124e-10
1.01264e-09
3.53475e-08
2.71071e-08
2.41653e-08
2.97254e-08
3.54816e-08
4.02679e-08
4.83592e-08
5.08005e-08
4.58637e-08
4.16272e-08
4.58466e-08
5.36639e-08
6.08984e-08
5.96821e-08
5.94214e-08
5.72791e-08
5.0892e-08
4.46203e-08
4.22896e-08
4.12988e-08
3.6114e-08
3.08706e-08
2.90864e-08
2.61536e-08
2.58687e-08
2.36691e-08
1.99057e-08
1.73117e-08
1.59997e-08
1.46769e-08
1.08095e-08
1.04793e-08
7.71175e-09
7.19609e-09
5.90818e-09
2.38178e-09
2.86971e-09
2.16514e-10
1.82347e-09
3.50105e-09
3.45413e-08
2.46846e-08
2.52441e-08
3.05886e-08
3.05545e-08
3.63427e-08
4.31102e-08
5.00856e-08
5.28958e-08
4.96795e-08
5.10564e-08
5.32644e-08
5.44076e-08
5.12149e-08
4.68424e-08
4.70987e-08
4.53597e-08
4.06705e-08
3.72241e-08
3.58247e-08
3.40959e-08
3.05457e-08
2.78242e-08
2.57249e-08
2.31304e-08
2.06726e-08
1.87146e-08
1.66268e-08
1.47425e-08
1.20486e-08
9.83317e-09
9.11182e-09
6.51807e-09
3.72681e-09
5.53318e-09
1.10633e-08
6.14693e-11
3.87222e-09
6.85241e-09
4.31795e-08
2.62178e-08
2.48532e-08
2.4406e-08
2.74594e-08
2.61132e-08
3.14841e-08
3.69045e-08
4.13037e-08
4.51568e-08
4.57012e-08
4.44349e-08
4.48901e-08
4.53066e-08
4.31415e-08
4.14099e-08
4.00788e-08
3.996e-08
3.67988e-08
3.37055e-08
3.10215e-08
2.86323e-08
2.78869e-08
2.60916e-08
2.33305e-08
2.22885e-08
1.95961e-08
1.56977e-08
1.22842e-08
1.34776e-08
1.03131e-08
8.72798e-09
4.27803e-09
6.13762e-09
5.91236e-09
1.68458e-09
4.71197e-10
2.32469e-08
3.43587e-09
3.05001e-12
2.67713e-10
2.42119e-08
2.52297e-08
2.37265e-08
2.43771e-08
2.40735e-08
2.8118e-08
3.34419e-08
3.43035e-08
3.62493e-08
3.82277e-08
3.60722e-08
3.70047e-08
3.7416e-08
3.71752e-08
3.67221e-08
3.28965e-08
3.24219e-08
3.25135e-08
2.99682e-08
2.83992e-08
2.70984e-08
2.55788e-08
2.50454e-08
2.2404e-08
2.03106e-08
1.87306e-08
1.78297e-08
1.52973e-08
1.41169e-08
1.28572e-08
9.79199e-09
9.26697e-09
6.64952e-09
7.49692e-09
6.25242e-09
4.50271e-09
4.42504e-09
2.39999e-09
2.21204e-14
8.88279e-10
2.1942e-08
2.37624e-08
2.23881e-08
2.20215e-08
2.22843e-08
2.49661e-08
2.98725e-08
3.14761e-08
3.09058e-08
3.16433e-08
3.0439e-08
3.07489e-08
3.13253e-08
3.19241e-08
3.19602e-08
3.01634e-08
2.69843e-08
2.77697e-08
2.71883e-08
2.51504e-08
2.49372e-08
2.41363e-08
2.25202e-08
2.15697e-08
2.00198e-08
1.78073e-08
1.66035e-08
1.55837e-08
1.3448e-08
1.14236e-08
1.00336e-08
9.47524e-09
7.82731e-09
4.96753e-09
5.31762e-09
3.97241e-09
2.94567e-09
3.6542e-11
1.33952e-09
3.3577e-11
2.08014e-08
2.18906e-08
2.07726e-08
2.01322e-08
2.03703e-08
2.26958e-08
2.56695e-08
2.78764e-08
2.78623e-08
2.65938e-08
2.6069e-08
2.59599e-08
2.67804e-08
2.72126e-08
2.65963e-08
2.61821e-08
2.47235e-08
2.23565e-08
2.34168e-08
2.36263e-08
2.2639e-08
2.22912e-08
2.13114e-08
1.98016e-08
1.93631e-08
1.81436e-08
1.63224e-08
1.4275e-08
1.3203e-08
1.18673e-08
1.03082e-08
8.65486e-09
7.64703e-09
6.27405e-09
4.66803e-09
4.19199e-09
3.24896e-09
2.20729e-09
4.06069e-09
2.42659e-09
1.92763e-08
1.99971e-08
1.92376e-08
1.83562e-08
1.88608e-08
2.0734e-08
2.21601e-08
2.30991e-08
2.36708e-08
2.29982e-08
2.24551e-08
2.24999e-08
2.26156e-08
2.2977e-08
2.24959e-08
2.18085e-08
2.19893e-08
2.08559e-08
1.96971e-08
2.11052e-08
2.13621e-08
2.03612e-08
2.04522e-08
2.01027e-08
1.89072e-08
1.73931e-08
1.63926e-08
1.46551e-08
1.32275e-08
1.19488e-08
1.0608e-08
9.12211e-09
7.27216e-09
6.84956e-09
5.99728e-09
5.01553e-09
4.41553e-09
2.71628e-09
2.65834e-09
2.54807e-09
1.76393e-08
1.81812e-08
1.75809e-08
1.68665e-08
1.70522e-08
1.82933e-08
1.95733e-08
1.97219e-08
1.97022e-08
1.97558e-08
1.92864e-08
1.95618e-08
1.97457e-08
1.91771e-08
1.92741e-08
1.86893e-08
1.75407e-08
1.83815e-08
1.87752e-08
1.82429e-08
1.91287e-08
1.98946e-08
1.95538e-08
1.88175e-08
1.80666e-08
1.66883e-08
1.56048e-08
1.43359e-08
1.3006e-08
1.10562e-08
9.79584e-09
8.6927e-09
7.75137e-09
6.43477e-09
4.98263e-09
4.13922e-09
3.63441e-09
3.2877e-09
3.6024e-09
2.54462e-09
1.66107e-08
1.67183e-08
1.61438e-08
1.56824e-08
1.56349e-08
1.59818e-08
1.66204e-08
1.70828e-08
1.67635e-08
1.65858e-08
1.69873e-08
1.67793e-08
1.68047e-08
1.69598e-08
1.60457e-08
1.56017e-08
1.56283e-08
1.52247e-08
1.60628e-08
1.7234e-08
1.76675e-08
1.79648e-08
1.82802e-08
1.75057e-08
1.66197e-08
1.54623e-08
1.43253e-08
1.25032e-08
1.1189e-08
9.80807e-09
8.51118e-09
7.09768e-09
5.76234e-09
4.97904e-09
4.3172e-09
3.60288e-09
3.21738e-09
2.45572e-09
2.41628e-09
2.17577e-09
1.5276e-08
1.52189e-08
1.46958e-08
1.40899e-08
1.39772e-08
1.4188e-08
1.41311e-08
1.41612e-08
1.43781e-08
1.42722e-08
1.43838e-08
1.48661e-08
1.47795e-08
1.4553e-08
1.42877e-08
1.34039e-08
1.29331e-08
1.31889e-08
1.31323e-08
1.33311e-08
1.3854e-08
1.33009e-08
1.21241e-08
1.06946e-08
9.06625e-09
7.03048e-09
5.58031e-09
4.18056e-09
3.19563e-09
2.04887e-09
1.57012e-09
1.12789e-09
9.57671e-10
7.31126e-10
4.5821e-10
4.38826e-10
3.57484e-10
4.43651e-10
5.69675e-10
4.92962e-10
1.47472e-08
1.45093e-08
1.39471e-08
1.33375e-08
1.29211e-08
1.27198e-08
1.27289e-08
1.26483e-08
1.26875e-08
1.31891e-08
1.36265e-08
1.40312e-08
1.44776e-08
1.40407e-08
1.27688e-08
1.11438e-08
8.35314e-09
4.85517e-09
2.62848e-09
1.12353e-09
2.95731e-10
4.29082e-11
1.01532e-11
1.37315e-11
3.77737e-11
7.4352e-11
7.31008e-11
8.64208e-11
6.26349e-11
4.8407e-11
1.38841e-11
5.60939e-12
2.48125e-13
9.7831e-14
1.92018e-12
6.63474e-12
1.38095e-11
2.55823e-11
2.62781e-11
3.9568e-11
1.21634e-08
1.21031e-08
1.1812e-08
1.14578e-08
1.12842e-08
1.12481e-08
1.12346e-08
1.14794e-08
1.16437e-08
1.18201e-08
1.22162e-08
1.20206e-08
1.08026e-08
8.93288e-09
5.92313e-09
2.5264e-09
5.57405e-10
1.34748e-11
3.42527e-11
3.64404e-10
7.3487e-10
1.01827e-09
1.16528e-09
1.14846e-09
9.93917e-10
8.13067e-10
5.37091e-10
3.25809e-10
1.64141e-10
9.3706e-11
3.58314e-11
1.32565e-11
1.67016e-12
1.0374e-13
4.9303e-14
7.79526e-13
2.02113e-12
4.86652e-12
5.79698e-12
6.3167e-12
9.64133e-10
9.92723e-10
1.0365e-09
1.16385e-09
1.39772e-09
1.63873e-09
1.88366e-09
2.17782e-09
2.40889e-09
2.58448e-09
2.65274e-09
2.52277e-09
2.06861e-09
1.41468e-09
7.08405e-10
2.03419e-10
1.26869e-11
7.76857e-12
1.16822e-10
2.83566e-10
3.54175e-10
3.32343e-10
2.76356e-10
2.16092e-10
1.5961e-10
1.19502e-10
7.94771e-11
4.49572e-11
1.97589e-11
9.05455e-12
2.99609e-12
7.08512e-13
3.03933e-14
5.43866e-14
5.98804e-13
8.7371e-13
1.76696e-12
1.71139e-12
2.00412e-12
1.63085e-12
5.5465e-12
5.80257e-12
7.56447e-12
1.19367e-11
1.99942e-11
3.02284e-11
4.37551e-11
6.1093e-11
8.00953e-11
1.02905e-10
1.26308e-10
1.37875e-10
1.30982e-10
1.0611e-10
6.30385e-11
2.00112e-11
1.69944e-12
3.32088e-12
2.49498e-11
5.78829e-11
7.52227e-11
7.33216e-11
5.7432e-11
3.72133e-11
2.01643e-11
1.05773e-11
4.72689e-12
1.73392e-12
4.03048e-13
4.67628e-14
3.75378e-16
4.23336e-14
3.24687e-13
6.00695e-13
1.15282e-12
1.12715e-12
1.36738e-12
1.07024e-12
9.12868e-13
6.47179e-13
1.14155e-14
3.73794e-15
1.55986e-14
4.53536e-14
9.83947e-14
1.99542e-13
3.71706e-13
6.31064e-13
1.01112e-12
1.54644e-12
2.34802e-12
3.45365e-12
4.32426e-12
4.99123e-12
4.59987e-12
1.2894e-12
8.24076e-14
2.73652e-12
1.13657e-11
1.53174e-11
9.43713e-12
2.1972e-12
1.05437e-13
1.16222e-14
3.27173e-13
7.19095e-13
9.07853e-13
8.32824e-13
8.11841e-13
6.4107e-13
5.17396e-13
3.54186e-13
2.70587e-13
1.68659e-13
1.16657e-13
5.87648e-14
3.60516e-14
1.44302e-14
2.24588e-14
5.88156e-14
)
;

boundaryField
{
    inlet
    {
        type            calculated;
        value           nonuniform List<scalar> 
20
(
1.54357e-34
1.82245e-32
6.92412e-33
9.07701e-33
1.75326e-33
3.35796e-34
4.27539e-34
1.38838e-33
1.21951e-33
1.37543e-33
1.60828e-33
1.75235e-33
1.38583e-33
1.15669e-33
2.94154e-34
4.94713e-34
6.02503e-35
5.16718e-33
5.97263e-33
1.48605e-34
)
;
    }
    outlet
    {
        type            calculated;
        value           nonuniform List<scalar> 
27
(
7.89883e-33
4.39105e-33
2.25514e-32
3.60261e-32
8.52917e-33
1.44071e-32
2.00174e-36
5.92704e-35
7.99104e-33
1.19017e-32
1.29627e-32
1.3488e-32
1.4295e-32
1.56349e-32
6.77172e-33
1.08778e-33
1.20954e-36
3.75434e-35
1.44574e-34
2.56173e-35
1.15692e-34
2.57763e-34
5.05116e-35
2.78226e-32
2.37014e-33
3.12027e-34
1.66687e-33
)
;
    }
    lowerWall
    {
        type            fixedValue;
        value           uniform 0;
    }
    upperWall
    {
        type            fixedValue;
        value           uniform 0;
    }
    defaultFaces
    {
        type            empty;
    }
}


// ************************************************************************* //
