/*--------------------------------*- C++ -*----------------------------------*\
| =========                 |                                                 |
| \\      /  F ield         | OpenFOAM: The Open Source CFD Toolbox           |
|  \\    /   O peration     | Version:  2112                                  |
|   \\  /    A nd           | Website:  www.openfoam.com                      |
|    \\/     M anipulation  |                                                 |
\*---------------------------------------------------------------------------*/
FoamFile
{
    version     2.0;
    format      ascii;
    arch        "LSB;label=32;scalar=64";
    class       volScalarField;
    location    "0.49";
    object      p;
}
// * * * * * * * * * * * * * * * * * * * * * * * * * * * * * * * * * * * * * //

dimensions      [0 2 -2 0 0 0 0];

internalField   nonuniform List<scalar> 
1880
(
0.00311408
0.00298069
0.00288855
0.00283889
0.00281198
0.00279009
0.00277209
0.00275402
0.00273941
0.00272735
0.00271669
0.00271335
0.00270884
0.00271078
0.00271763
0.00272477
0.00274171
0.00276417
0.00278952
0.00282679
0.00287127
0.00291643
0.00298479
0.0030474
0.00312056
0.00319743
0.00326636
0.00331855
0.0033498
0.00326453
0.00293394
0.00290333
0.0028617
0.00282577
0.00279644
0.00277587
0.00275705
0.00274396
0.00272937
0.00271879
0.00270725
0.00270299
0.00269738
0.00269775
0.00270406
0.00270816
0.00272353
0.00274307
0.00276247
0.00280109
0.00283326
0.00287857
0.00293619
0.00299361
0.00305396
0.00312325
0.00318345
0.003228
0.00327213
0.00326505
0.00289977
0.00288082
0.00285038
0.00281854
0.00279055
0.00276916
0.0027497
0.00273679
0.00272116
0.00271096
0.00269854
0.00269222
0.00268562
0.00268253
0.00268648
0.0026869
0.00269897
0.00271186
0.00272707
0.00275422
0.00277926
0.00281203
0.00285439
0.00289364
0.00293498
0.00298336
0.00301847
0.00304887
0.00307647
0.00308339
0.00284131
0.00283338
0.00281434
0.00279342
0.00277182
0.00275294
0.00273592
0.00272095
0.00270731
0.00269455
0.0026844
0.00267487
0.00266787
0.00266172
0.00266198
0.00265984
0.00266578
0.0026724
0.00268171
0.00269813
0.00271371
0.00273372
0.00276127
0.00277977
0.00280803
0.00282875
0.0028441
0.00284972
0.00284981
0.00283201
0.00281165
0.00280741
0.00279405
0.00277769
0.00275935
0.0027428
0.0027255
0.00270988
0.00269515
0.00268121
0.00267031
0.00265869
0.00264974
0.00264064
0.00263655
0.00263153
0.00263002
0.00263236
0.00263367
0.00264042
0.00264607
0.00265499
0.0026652
0.00267096
0.00267737
0.00267798
0.00267088
0.00265307
0.00262116
0.00257698
0.00278417
0.00278031
0.00277048
0.00275618
0.00274187
0.00272653
0.00271138
0.00269513
0.00267988
0.00266462
0.00265244
0.0026397
0.00262789
0.00261644
0.00260832
0.00259893
0.00259226
0.00258773
0.0025825
0.0025798
0.00257608
0.00257257
0.00256994
0.00255952
0.0025492
0.00253173
0.00250354
0.002462
0.00240733
0.00233661
0.00276286
0.00275983
0.00275215
0.00273982
0.00272723
0.00271309
0.00269863
0.00268219
0.0026659
0.00264926
0.00263505
0.0026207
0.00260578
0.00259189
0.00257923
0.00256619
0.00255346
0.00254279
0.00253087
0.00251915
0.00250571
0.0024921
0.00247594
0.00245235
0.00242684
0.00239198
0.00234511
0.00228606
0.00220968
0.00211791
0.00274631
0.00274239
0.00273618
0.00272492
0.00271303
0.00269933
0.0026848
0.00266833
0.002651
0.00263294
0.00261681
0.00260026
0.00258278
0.00256565
0.00254928
0.0025318
0.00251387
0.00249692
0.00247857
0.00245821
0.00243657
0.00241226
0.00238512
0.00234954
0.00230968
0.00226024
0.00219896
0.00212286
0.00203002
0.00192148
0.00273284
0.00272857
0.00272311
0.00271247
0.00270078
0.00268703
0.0026719
0.00265524
0.00263664
0.00261715
0.00259894
0.00258007
0.00255995
0.0025396
0.00251942
0.0024978
0.00247462
0.00245179
0.00242717
0.00239927
0.00236924
0.00233585
0.00229863
0.00225205
0.00219996
0.00213851
0.0020636
0.00197417
0.00186861
0.00174655
0.00272304
0.0027183
0.00271272
0.00270256
0.00269042
0.00267619
0.00266011
0.00264262
0.00262295
0.00260169
0.00258148
0.00256022
0.00253732
0.0025138
0.00249002
0.00246412
0.00243619
0.0024077
0.00237733
0.00234225
0.00230481
0.00226328
0.00221682
0.00216092
0.00209821
0.00202589
0.00194045
0.00184018
0.00172423
0.00159209
0.00271631
0.00271124
0.00270535
0.00269523
0.00268222
0.00266714
0.00264964
0.00263106
0.00261009
0.0025869
0.00256477
0.00254101
0.00251534
0.00248888
0.00246142
0.00243159
0.0023991
0.00236538
0.00232964
0.00228815
0.00224382
0.00219519
0.00214057
0.00207639
0.00200452
0.00192344
0.00182939
0.0017201
0.00159616
0.00145684
0.0027131
0.00270789
0.00270113
0.00269057
0.00267648
0.00266006
0.00264106
0.00262088
0.00259849
0.00257344
0.00254921
0.00252315
0.00249467
0.0024653
0.0024345
0.00240074
0.00236404
0.00232558
0.00228485
0.00223766
0.00218703
0.00213223
0.00207038
0.00199889
0.00191954
0.00183105
0.00173005
0.00161387
0.00148377
0.00133928
0.00271352
0.00270805
0.00270008
0.00268841
0.00267271
0.00265443
0.00263355
0.00261146
0.00258757
0.00256064
0.0025344
0.00250625
0.00247501
0.00244297
0.00240899
0.00237149
0.00233104
0.00228827
0.00224292
0.00219081
0.00213453
0.00207434
0.00200638
0.00192856
0.00184301
0.00174852
0.00164188
0.00152034
0.00138547
0.0012372
0.00271861
0.00271293
0.00270366
0.00269046
0.00267295
0.00265246
0.00262952
0.00260528
0.00257954
0.0025508
0.00252227
0.00249188
0.00245794
0.00242306
0.00238608
0.00234503
0.00230102
0.00225444
0.00220476
0.0021483
0.00208707
0.00202209
0.00194893
0.00186564
0.00177515
0.00167593
0.00156464
0.00143899
0.00130062
0.00115003
0.0027281
0.00272129
0.00270953
0.00269325
0.0026727
0.00264932
0.00262398
0.00259761
0.00257014
0.00253992
0.00250949
0.00247732
0.00244121
0.00240394
0.00236444
0.00232027
0.00227323
0.00222343
0.00216984
0.00210967
0.00204433
0.00197508
0.00189757
0.00180986
0.00171533
0.00161228
0.00149717
0.0013685
0.00122784
0.0010753
0.00274694
0.00273882
0.00272402
0.00270368
0.00267922
0.00265243
0.00262451
0.00259606
0.0025668
0.00253508
0.00250256
0.00246808
0.00242952
0.00238944
0.0023471
0.00229988
0.00224981
0.00219699
0.00213974
0.00207618
0.00200735
0.00193415
0.00185282
0.00176167
0.00166395
0.00155777
0.0014395
0.00130853
0.00116646
0.00101345
0.0027673
0.00275509
0.0027345
0.00270838
0.00267978
0.00265025
0.00262054
0.00259079
0.00256005
0.0025269
0.00249249
0.00245583
0.00241531
0.00237313
0.00232869
0.00227941
0.00222723
0.0021721
0.00211193
0.00204577
0.00197437
0.00189777
0.00181322
0.00171961
0.00161947
0.00151083
0.00139042
0.00125817
0.0011151
0.00096043
0.00282052
0.00279797
0.00276351
0.00272589
0.00269033
0.00265702
0.00262552
0.00259424
0.00256144
0.00252635
0.00248967
0.00245069
0.00240856
0.00236454
0.00231805
0.00226703
0.00221271
0.00215498
0.00209191
0.002023
0.00194881
0.00186876
0.00178142
0.00168602
0.00158359
0.00147248
0.00135047
0.00121762
0.00107472
0.000920868
0.00284925
0.00281459
0.00276954
0.00272679
0.00268935
0.00265584
0.00262396
0.00259163
0.0025571
0.00252059
0.00248239
0.00244174
0.00239849
0.00235292
0.00230444
0.00225203
0.00219572
0.00213538
0.00207012
0.00199984
0.00192403
0.00184134
0.00175206
0.0016563
0.00155283
0.00144016
0.00131737
0.00118402
0.00104021
0.000885388
0.00302881
0.00288899
0.00279164
0.00273737
0.00270162
0.00266794
0.00263319
0.00259736
0.00256019
0.00252207
0.00248271
0.00244145
0.00239789
0.00235152
0.00230184
0.00224853
0.00219112
0.00212966
0.0020635
0.00199208
0.00191473
0.00183088
0.00174067
0.00164379
0.00153895
0.00142521
0.00130214
0.00116953
0.00102734
0.000875133
0.00339361
0.0035181
0.00313913
0.00283408
0.00218979
0.00168427
0.000775745
7.87375e-05
-0.00133423
-0.00264763
0.00340713
0.00335103
0.00280846
0.00245425
0.0017678
0.00118809
0.000324738
-0.000511745
-0.00166872
-0.00298565
0.00312077
0.00294444
0.00246742
0.00215603
0.0015075
0.00100302
0.00018039
-0.000545966
-0.00159184
-0.00254554
0.00282069
0.00261096
0.00219185
0.00179153
0.00124218
0.000654255
-4.13956e-05
-0.000809237
-0.00164495
-0.00252406
0.00252106
0.00229743
0.00187535
0.00150969
0.000999125
0.000483273
-0.000151039
-0.000860285
-0.00159198
-0.00233172
0.00225503
0.00200841
0.00165217
0.0012569
0.000811732
0.000280192
-0.000280682
-0.000939182
-0.00158944
-0.00223923
0.00201186
0.00177452
0.00142281
0.00104788
0.00062986
0.000148312
-0.000366042
-0.000955713
-0.00154701
-0.00211509
0.00180093
0.00155928
0.00124034
0.000873515
0.000488405
3.42347e-05
-0.000443235
-0.000978485
-0.00151774
-0.00202847
0.00161118
0.00138011
0.00107363
0.000725959
0.000361138
-5.54435e-05
-0.000500133
-0.000986809
-0.00147859
-0.00194216
0.00144834
0.00122271
0.000934621
0.000604325
0.000259974
-0.000126806
-0.000542394
-0.00099088
-0.00144077
-0.0018686
0.00130481
0.00108746
0.000812945
0.000500617
0.000173151
-0.000186792
-0.000574989
-0.000989961
-0.00140352
-0.00179996
0.00118271
0.00097237
0.000711787
0.00041611
0.000104917
-0.000232885
-0.000596354
-0.000982213
-0.00136542
-0.0017361
0.00107627
0.000871957
0.000623577
0.000343239
4.67456e-05
-0.000272213
-0.000613541
-0.000973238
-0.00133066
-0.00167839
0.000987658
0.000789326
0.000552381
0.000285981
3.19033e-06
-0.00029961
-0.00062168
-0.000958753
-0.00129475
-0.00162376
0.000910194
0.00071577
0.000488742
0.000234871
-3.54519e-05
-0.000323996
-0.000629105
-0.000946471
-0.00126385
-0.00157593
0.00084886
0.000659217
0.000441193
0.000198392
-6.0886e-05
-0.000337248
-0.000628166
-0.000929437
-0.00123178
-0.0015308
0.000793528
0.000606143
0.000395641
0.000162868
-8.60595e-05
-0.000351194
-0.000629362
-0.000916712
-0.00120592
-0.00149289
0.000755303
0.000571882
0.000367904
0.000142945
-9.81929e-05
-0.000354774
-0.000623148
-0.000899944
-0.00117952
-0.00145817
0.00071875
0.000537193
0.000338892
0.000122084
-0.000111074
-0.000359497
-0.000618921
-0.000886968
-0.00115891
-0.00143069
0.000711225
0.000530631
0.000333089
0.000118068
-0.000112213
-0.000356723
-0.000612131
-0.000876951
-0.00114634
-0.00141834
-0.00523703
-0.00564068
-0.00587133
-0.00594111
-0.00614212
-0.00609028
-0.00678035
-0.00888451
-0.0111937
-0.0128159
-0.0135021
-0.0132
-0.0120835
-0.010429
-0.00842904
-0.00630802
-0.00413515
-0.00211204
-0.000360904
0.00105624
0.00198833
0.0024933
0.00267726
0.00262687
0.00244614
0.00220296
0.00194053
0.00168545
0.0014503
0.00124186
0.0010619
0.000907066
0.000771477
0.00064959
0.000532099
0.000416119
0.000301433
0.000194996
0.000103137
2.57533e-05
-0.00541347
-0.0057115
-0.00595123
-0.00592337
-0.00602366
-0.00650674
-0.00766502
-0.009845
-0.0120136
-0.0135332
-0.0140841
-0.0136819
-0.0124568
-0.0107266
-0.0086853
-0.0065602
-0.00438049
-0.00232906
-0.000562295
0.000882327
0.00184075
0.00237035
0.00257143
0.00253825
0.00237285
0.00214355
0.00189319
0.00164726
0.00141938
0.00121748
0.00104024
0.000888895
0.000755597
0.000634814
0.000517157
0.000400461
0.00028755
0.000184164
9.81236e-05
2.6919e-05
-0.0056293
-0.00598688
-0.00587409
-0.00615127
-0.00615672
-0.00704809
-0.00880319
-0.0110818
-0.013169
-0.0146117
-0.0150323
-0.0144571
-0.013051
-0.0112054
-0.00912016
-0.00696932
-0.00480784
-0.00273785
-0.000935389
0.000537516
0.0015378
0.00209939
0.00232988
0.00232753
0.00219219
0.00199138
0.00176782
0.00154571
0.00133835
0.00115214
0.000987212
0.000843803
0.000717562
0.000602363
0.000493281
0.000387465
0.000287644
0.000193637
0.000109653
3.46071e-05
-0.00528677
-0.00563871
-0.00561432
-0.00568916
-0.00601336
-0.00765074
-0.00985829
-0.0121477
-0.0142115
-0.0156461
-0.0159721
-0.0152445
-0.0136852
-0.0117157
-0.00957555
-0.00742948
-0.00529415
-0.00320671
-0.00138608
9.90139e-05
0.00112738
0.00172082
0.00198746
0.00202827
0.00193802
0.00178099
0.00159752
0.00140992
0.00123122
0.00106832
0.000922177
0.000792007
0.000674929
0.000567173
0.000465177
0.00036701
0.000273222
0.000185121
0.000105431
3.39351e-05
-0.00545623
-0.00595111
-0.00540472
-0.0056341
-0.00570855
-0.00786074
-0.0104223
-0.01287
-0.0150256
-0.0165216
-0.0168471
-0.0159948
-0.0142738
-0.0121939
-0.0100154
-0.00786069
-0.0057425
-0.00368026
-0.00185348
-0.000373739
0.000667125
0.00127808
0.00157692
0.00166549
0.00162869
0.00152427
0.00138911
0.00124348
0.00109961
0.000964163
0.000839632
0.000725121
0.000619678
0.000521698
0.00042901
0.000340675
0.000255925
0.000175739
0.000101744
3.34029e-05
-0.00441128
-0.00495109
-0.00443207
-0.00458137
-0.00518053
-0.00771515
-0.0106232
-0.0131814
-0.0153654
-0.0168652
-0.0171958
-0.0163227
-0.0145847
-0.0124895
-0.0103217
-0.00817965
-0.00608794
-0.00406726
-0.00226938
-0.00082406
0.000202484
0.000826381
0.00115985
0.00129763
0.00131532
0.00126482
0.00117884
0.0010754
0.000965895
0.000857438
0.000754278
0.000656981
0.000564668
0.000477194
0.000393858
0.000313953
0.000237044
0.000164065
9.57995e-05
3.14409e-05
-0.00468185
-0.00588696
-0.00498323
-0.00446629
-0.00464722
-0.00724568
-0.010293
-0.012952
-0.0151674
-0.0166552
-0.0170234
-0.0161696
-0.0145025
-0.0125
-0.0104063
-0.00831015
-0.00626619
-0.00431836
-0.00258977
-0.00120691
-0.000230002
0.000386243
0.000753301
0.000947231
0.00102285
0.0010237
0.00098173
0.000915345
0.00083579
0.000751546
0.000667462
0.000586007
0.000505671
0.000428113
0.000353429
0.000282475
0.000214933
0.000149441
8.81603e-05
2.91725e-05
-0.00524718
-0.00463001
-0.00344332
-0.00339887
-0.00439815
-0.00672201
-0.00964428
-0.0122141
-0.0143077
-0.0156584
-0.0160395
-0.01538
-0.0139341
-0.012149
-0.0102145
-0.00821973
-0.00625823
-0.00441252
-0.00280299
-0.00151816
-0.000602225
-3.28374e-06
0.000379324
0.000614313
0.000741908
0.000793165
0.000794004
0.000761801
0.000707701
0.000643955
0.000576668
0.000510553
0.000443016
0.00037617
0.000311847
0.000250254
0.000191786
0.000134422
7.97227e-05
2.66358e-05
-0.0039825
-0.00444056
-0.00458942
-0.00441562
-0.0042522
-0.00630174
-0.00903395
-0.0113475
-0.0131704
-0.0143571
-0.0147694
-0.014302
-0.0130964
-0.0115267
-0.00976543
-0.00790028
-0.00606716
-0.00437519
-0.00291683
-0.00175767
-0.000918264
-0.000336096
6.19051e-05
0.000323392
0.000482935
0.000566564
0.000598297
0.000596822
0.000570003
0.000527629
0.000477459
0.000425979
0.000372523
0.000318233
0.000264936
0.000213414
0.000164148
0.000116036
6.9974e-05
2.36613e-05
-0.0034118
-0.00392493
-0.0039675
-0.0040227
-0.00472265
-0.00636994
-0.00856748
-0.0105365
-0.0120904
-0.0130931
-0.0134326
-0.0130466
-0.0120285
-0.0106312
-0.00903025
-0.0073478
-0.00571265
-0.00423865
-0.00297503
-0.00194937
-0.00117897
-0.000623754
-0.000225756
5.38327e-05
0.000239775
0.000350311
0.000406403
0.000426002
0.000420417
0.000399378
0.000369488
0.000335167
0.000297157
0.000256059
0.000215188
0.000174793
0.000134795
9.57995e-05
5.70696e-05
1.9255e-05
-0.00311366
-0.00362094
-0.00398606
-0.00447396
-0.00511547
-0.00627893
-0.00794336
-0.00950649
-0.0107241
-0.0114914
-0.0117733
-0.0115006
-0.0106576
-0.00946668
-0.00810791
-0.00669661
-0.00533265
-0.00409703
-0.00302082
-0.0021199
-0.00140927
-0.000873224
-0.000480895
-0.000201635
-6.36087e-06
0.000124278
0.000206994
0.000254253
0.000273369
0.000273352
0.000261345
0.000243208
0.000220183
0.00019338
0.000165499
0.000136318
0.000106392
7.64912e-05
4.59601e-05
1.61891e-05
-0.00285169
-0.00336331
-0.00383636
-0.00435087
-0.00499107
-0.00591346
-0.00714718
-0.00835827
-0.0093201
-0.00994395
-0.0101957
-0.0100025
-0.00935221
-0.00839313
-0.00728364
-0.00612961
-0.00500884
-0.00397154
-0.00304647
-0.00225031
-0.00160217
-0.00109818
-0.00071275
-0.000424794
-0.000215803
-6.99769e-05
2.8353e-05
9.43219e-05
0.00013415
0.000155686
0.000161915
0.000159497
0.000150184
0.000135442
0.000118607
9.84712e-05
7.72465e-05
5.51067e-05
3.25018e-05
1.10519e-05
-0.00267874
-0.00316518
-0.00367171
-0.00420245
-0.00482427
-0.00558084
-0.00650254
-0.00743941
-0.00820473
-0.00870004
-0.00888599
-0.00873425
-0.00823402
-0.00748494
-0.00659668
-0.00565337
-0.00472367
-0.00384654
-0.00304529
-0.00234162
-0.00175354
-0.00128463
-0.000917681
-0.000632315
-0.000412188
-0.000246742
-0.000127912
-4.54408e-05
9.87874e-06
4.66612e-05
6.77962e-05
7.89136e-05
8.23314e-05
8.01886e-05
7.44745e-05
6.37472e-05
5.11442e-05
3.73863e-05
2.2721e-05
7.79004e-06
-0.00253976
-0.00299976
-0.00349836
-0.00402039
-0.00459812
-0.00523947
-0.00595259
-0.00667484
-0.00727221
-0.00766045
-0.00781077
-0.007702
-0.00732535
-0.00673831
-0.00602342
-0.00524971
-0.00447175
-0.0037259
-0.00303548
-0.00241811
-0.00188664
-0.00144574
-0.00108979
-0.000808335
-0.000587791
-0.000417987
-0.000288523
-0.000190924
-0.000119362
-6.72134e-05
-3.09711e-05
-5.93403e-06
1.02819e-05
1.91615e-05
2.32791e-05
2.32768e-05
2.0447e-05
1.59007e-05
9.86532e-06
3.05233e-06
-0.00243075
-0.00285828
-0.00332791
-0.00382359
-0.00435172
-0.00490481
-0.00547973
-0.00604753
-0.00652097
-0.00683628
-0.00696222
-0.00688011
-0.00658523
-0.00611991
-0.00554277
-0.00490366
-0.00424924
-0.00361384
-0.00301777
-0.00247239
-0.00199008
-0.00158181
-0.00124597
-0.000972974
-0.0007513
-0.000572818
-0.000431818
-0.000321967
-0.000237438
-0.00017176
-0.000121971
-8.38299e-05
-5.50773e-05
-3.44697e-05
-1.93107e-05
-1.00821e-05
-4.48303e-06
-8.42378e-07
-6.24922e-09
1.39088e-08
-0.00233057
-0.00272896
-0.0031635
-0.00362539
-0.004106
-0.00458951
-0.0050667
-0.00552153
-0.00590238
-0.00616048
-0.00626579
-0.00620402
-0.00597421
-0.00560133
-0.00512993
-0.00460332
-0.0040564
-0.00351429
-0.00299479
-0.00251411
-0.00208235
-0.00170531
-0.00138497
-0.00111848
-0.000898324
-0.000716073
-0.000566013
-0.000444568
-0.000347317
-0.000268758
-0.000205893
-0.000156289
-0.00011721
-8.65706e-05
-6.21716e-05
-4.37396e-05
-2.95688e-05
-1.85458e-05
-1.02622e-05
-3.46984e-06
-0.00223763
-0.00260984
-0.00301132
-0.00343771
-0.00387307
-0.00429882
-0.00470388
-0.00507833
-0.00539017
-0.00560281
-0.00569378
-0.005649
-0.00546633
-0.00516652
-0.00478264
-0.00434704
-0.00388609
-0.00342267
-0.00297338
-0.00254871
-0.00215892
-0.0018124
-0.00151163
-0.00125406
-0.0010346
-0.000848319
-0.000691042
-0.000560416
-0.00045299
-0.000364256
-0.000290412
-0.000229464
-0.000179304
-0.000138423
-0.000104969
-7.75654e-05
-5.55158e-05
-3.68468e-05
-2.07001e-05
-6.99862e-06
-0.00215091
-0.00250041
-0.00287175
-0.00326246
-0.00365645
-0.00403527
-0.00438622
-0.00470079
-0.00495916
-0.00513821
-0.0052169
-0.00518431
-0.00504025
-0.00479913
-0.00448405
-0.00412259
-0.00373699
-0.00334211
-0.00295188
-0.0025784
-0.00222984
-0.00191162
-0.00162686
-0.00137666
-0.0011595
-0.000971546
-0.000808685
-0.000669197
-0.00055078
-0.000450306
-0.000364913
-0.000292727
-0.000232033
-0.000181078
-0.000138477
-0.000103313
-7.39439e-05
-4.9025e-05
-2.79111e-05
-9.25615e-06
-0.00207066
-0.00239994
-0.002744
-0.00310216
-0.00345945
-0.00379839
-0.00410733
-0.00437767
-0.00459635
-0.00474718
-0.00481601
-0.00479388
-0.00467968
-0.0044849
-0.00422878
-0.00393035
-0.00360638
-0.00327105
-0.00293606
-0.00260888
-0.00229525
-0.00200216
-0.00173452
-0.00149378
-0.00127922
-0.00108871
-0.000919619
-0.000771524
-0.000643535
-0.000533439
-0.000438277
-0.000356658
-0.000286942
-0.000227634
-0.000177227
-0.000134027
-9.71237e-05
-6.52224e-05
-3.70273e-05
-1.22994e-05
-0.00199691
-0.00230833
-0.00262869
-0.00295766
-0.0032826
-0.00358823
-0.00386325
-0.00409957
-0.00428789
-0.00441667
-0.00447691
-0.00446199
-0.00437178
-0.00421569
-0.00400768
-0.00376226
-0.00349344
-0.0032121
-0.00292514
-0.00263869
-0.00235925
-0.00209191
-0.00183981
-0.00160582
-0.00139203
-0.00119876
-0.00102428
-0.000868285
-0.000730504
-0.000609778
-0.000503929
-0.000411445
-0.000331154
-0.000262225
-0.000203584
-0.00015409
-0.000111784
-7.50364e-05
-4.25273e-05
-1.38485e-05
-0.00192962
-0.00222562
-0.00252525
-0.00282852
-0.00312568
-0.00340298
-0.00364942
-0.00385802
-0.00402195
-0.00413394
-0.00418725
-0.00417746
-0.00410651
-0.00398186
-0.00381437
-0.00361625
-0.00339694
-0.00316321
-0.00292112
-0.00267484
-0.00242698
-0.00218162
-0.00194306
-0.00171536
-0.00150223
-0.00130563
-0.00112502
-0.000960502
-0.000812568
-0.0006815
-0.000565964
-0.000464601
-0.000376023
-0.000299044
-0.000232979
-0.000176305
-0.000127776
-8.59314e-05
-4.91069e-05
-1.62766e-05
-0.00186906
-0.00215181
-0.00243382
-0.00271528
-0.00298847
-0.00324146
-0.00346432
-0.00365016
-0.00379406
-0.00389118
-0.00393796
-0.00393215
-0.00387585
-0.00377677
-0.00364465
-0.00348775
-0.00331293
-0.00312545
-0.00292743
-0.00271889
-0.00250048
-0.00227543
-0.0020485
-0.00182537
-0.00161125
-0.00140958
-0.00122143
-0.00104789
-0.000889758
-0.000747829
-0.00062146
-0.000509647
-0.000411525
-0.000326576
-0.000253707
-0.000191257
-0.000137799
-9.18931e-05
-5.1918e-05
-1.67837e-05
-0.00181496
-0.00208696
-0.00235443
-0.00261731
-0.00286937
-0.00310077
-0.00330318
-0.00347014
-0.0035972
-0.00368187
-0.00372171
-0.00371712
-0.0036722
-0.00359437
-0.00349231
-0.00337336
-0.00324151
-0.00309867
-0.00294355
-0.00277259
-0.00258349
-0.00237754
-0.00215938
-0.00193709
-0.00171896
-0.00151067
-0.00131413
-0.00113077
-0.000961752
-0.000808608
-0.000671366
-0.00054955
-0.000442588
-0.000350031
-0.000271027
-0.000203474
-0.000146038
-9.69241e-05
-5.46988e-05
-1.78198e-05
-0.00176793
-0.00203131
-0.00228728
-0.00253507
-0.00276929
-0.00298167
-0.0031651
-0.00331498
-0.0034276
-0.00350031
-0.00353233
-0.00352679
-0.00348919
-0.00342819
-0.003353
-0.00327024
-0.00318098
-0.00308282
-0.00297077
-0.00283661
-0.00267539
-0.0024869
-0.0022752
-0.00205122
-0.00182614
-0.00160772
-0.00139939
-0.00120391
-0.00102359
-0.000859293
-0.000711366
-0.000580269
-0.000465361
-0.000365913
-0.000281228
-0.00020922
-0.000148714
-9.73456e-05
-5.40901e-05
-1.6919e-05
-0.00172772
-0.00198503
-0.00223223
-0.00246824
-0.00268836
-0.00288581
-0.00305336
-0.00318713
-0.00328554
-0.00334653
-0.00336975
-0.00336039
-0.0033263
-0.0032779
-0.00322584
-0.00317715
-0.00313265
-0.00308312
-0.00301366
-0.00291091
-0.00276868
-0.00258859
-0.00237932
-0.00215324
-0.00192233
-0.00169474
-0.00147428
-0.00126569
-0.00107215
-0.000896961
-0.000740113
-0.000601065
-0.000479247
-0.000374205
-0.000285313
-0.00021012
-0.000147708
-9.51054e-05
-5.19974e-05
-1.56166e-05
-0.00169556
-0.00194894
-0.00218996
-0.0024158
-0.00262269
-0.0028067
-0.00296255
-0.00308472
-0.00317122
-0.00322046
-0.00323372
-0.00321814
-0.00318382
-0.00314352
-0.00311115
-0.00309486
-0.00309558
-0.00310116
-0.00307835
-0.00300222
-0.00286604
-0.00267791
-0.00245514
-0.00221544
-0.00197184
-0.00173403
-0.00150634
-0.00129171
-0.0010929
-0.00091242
-0.000750524
-0.000607064
-0.000481666
-0.000373904
-0.000282854
-0.000206343
-0.000143243
-9.0556e-05
-4.83904e-05
-1.34315e-05
-0.00168526
-0.00193717
-0.00217402
-0.00239484
-0.00259665
-0.00277491
-0.00292404
-0.00303971
-0.00311973
-0.00316255
-0.00317031
-0.00315062
-0.00311432
-0.00307454
-0.00304548
-0.00303779
-0.00305235
-0.00307282
-0.00306722
-0.0030075
-0.00288467
-0.00270388
-0.00248193
-0.00223956
-0.00199108
-0.00174825
-0.00151565
-0.00129783
-0.0010967
-0.000914459
-0.000751137
-0.000606948
-0.000480833
-0.000372847
-0.000281104
-0.000204526
-0.000141062
-8.85941e-05
-4.68942e-05
-1.21575e-05
)
;

boundaryField
{
    inlet
    {
        type            zeroGradient;
    }
    outlet
    {
        type            fixedValue;
        value           uniform 0;
    }
    lowerWall
    {
        type            zeroGradient;
    }
    upperWall
    {
        type            zeroGradient;
    }
    defaultFaces
    {
        type            empty;
    }
}


// ************************************************************************* //
