/*--------------------------------*- C++ -*----------------------------------*\
| =========                 |                                                 |
| \\      /  F ield         | OpenFOAM: The Open Source CFD Toolbox           |
|  \\    /   O peration     | Version:  2112                                  |
|   \\  /    A nd           | Website:  www.openfoam.com                      |
|    \\/     M anipulation  |                                                 |
\*---------------------------------------------------------------------------*/
FoamFile
{
    version     2.0;
    format      ascii;
    arch        "LSB;label=32;scalar=64";
    class       surfaceScalarField;
    location    "0.49";
    object      phi;
}
// * * * * * * * * * * * * * * * * * * * * * * * * * * * * * * * * * * * * * //

dimensions      [0 3 -1 0 0 0 0];

oriented        oriented;

internalField   nonuniform List<scalar> 
3653
(
9.92295e-07
7.705e-09
9.79189e-07
1.31057e-08
9.63697e-07
1.54924e-08
9.48244e-07
1.54524e-08
9.31762e-07
1.64829e-08
9.14786e-07
1.69753e-08
8.97465e-07
1.73209e-08
8.78765e-07
1.87005e-08
8.61217e-07
1.75482e-08
8.41524e-07
1.96927e-08
8.23242e-07
1.8282e-08
8.03517e-07
1.97246e-08
7.83608e-07
1.99096e-08
7.63405e-07
2.0203e-08
7.42455e-07
2.09496e-08
7.1992e-07
2.25354e-08
6.97699e-07
2.22207e-08
6.7306e-07
2.46394e-08
6.46919e-07
2.6141e-08
6.19784e-07
2.71345e-08
5.88895e-07
3.08894e-08
5.55177e-07
3.37181e-08
5.20151e-07
3.50261e-08
4.76492e-07
4.36588e-08
4.31123e-07
4.53687e-08
3.77266e-07
5.38573e-08
3.16345e-07
6.09211e-08
2.48692e-07
6.7653e-08
1.68277e-07
8.04147e-08
6.77539e-08
1.00523e-07
1.00204e-06
5.66377e-09
1.00573e-06
9.41429e-09
1.00823e-06
1.29968e-08
1.00981e-06
1.3871e-08
1.01032e-06
1.59763e-08
1.01192e-06
1.53716e-08
1.01016e-06
1.90853e-08
1.0114e-06
1.7455e-08
1.00846e-06
2.04938e-08
1.00775e-06
2.04021e-08
1.00386e-06
2.2165e-08
1.00242e-06
2.11655e-08
9.95712e-07
2.662e-08
9.94773e-07
2.11417e-08
9.85236e-07
3.04864e-08
9.8189e-07
2.58814e-08
9.72415e-07
3.16956e-08
9.64761e-07
3.22937e-08
9.52304e-07
3.85985e-08
9.44094e-07
3.53443e-08
9.24206e-07
5.07768e-08
9.14046e-07
4.38783e-08
8.89081e-07
5.9991e-08
8.71221e-07
6.15195e-08
8.39613e-07
7.69761e-08
8.15188e-07
7.82824e-08
7.70462e-07
1.05647e-07
7.36055e-07
1.02059e-07
6.78697e-07
1.37773e-07
1.29929e-07
6.16522e-07
1.0015e-06
4.16841e-09
1.0045e-06
6.40471e-09
1.00753e-06
9.97636e-09
1.00977e-06
1.16269e-08
1.0112e-06
1.45469e-08
1.01407e-06
1.25055e-08
1.01387e-06
1.92761e-08
1.01761e-06
1.37234e-08
1.01667e-06
2.14313e-08
1.01944e-06
1.76322e-08
1.01878e-06
2.28268e-08
1.02042e-06
1.95233e-08
1.0185e-06
2.85397e-08
1.02088e-06
1.87559e-08
1.01678e-06
3.45927e-08
1.01821e-06
2.44466e-08
1.01463e-06
3.52776e-08
1.01205e-06
3.48771e-08
1.0089e-06
4.17489e-08
1.00527e-06
3.89738e-08
9.97593e-07
5.84517e-08
9.94537e-07
4.69348e-08
9.82851e-07
7.16764e-08
9.76929e-07
6.74418e-08
9.6332e-07
9.05852e-08
9.52786e-07
8.88159e-08
9.36126e-07
1.22307e-07
9.18734e-07
1.19452e-07
8.98318e-07
1.58189e-07
1.62206e-07
8.66041e-07
1.00063e-06
3.54272e-09
1.00296e-06
4.0684e-09
1.00394e-06
8.99796e-09
1.0071e-06
8.46698e-09
1.00739e-06
1.42613e-08
1.01045e-06
9.44047e-09
1.01075e-06
1.89794e-08
1.0133e-06
1.11737e-08
1.01388e-06
2.08437e-08
1.01595e-06
1.55627e-08
1.01644e-06
2.23425e-08
1.01783e-06
1.81321e-08
1.01826e-06
2.81116e-08
1.01857e-06
1.84444e-08
1.01894e-06
3.42239e-08
1.01869e-06
2.46925e-08
1.01778e-06
3.61934e-08
1.0174e-06
3.52496e-08
1.01562e-06
4.35314e-08
1.01341e-06
4.11857e-08
1.01252e-06
5.93387e-08
1.00793e-06
5.15251e-08
1.00586e-06
7.37527e-08
1.00153e-06
7.17639e-08
9.98215e-07
9.39038e-08
9.91113e-07
9.59184e-08
9.90683e-07
1.22737e-07
9.79883e-07
1.30252e-07
9.77332e-07
1.60739e-07
1.74155e-07
9.65383e-07
1.00023e-06
3.31475e-09
1.00183e-06
2.46323e-09
1.00278e-06
8.0488e-09
1.00528e-06
5.97057e-09
1.00609e-06
1.34465e-08
1.00864e-06
6.89241e-09
1.00929e-06
1.83292e-08
1.01159e-06
8.87874e-09
1.01228e-06
2.01459e-08
1.01429e-06
1.35597e-08
1.01494e-06
2.16908e-08
1.01638e-06
1.66909e-08
1.01719e-06
2.73008e-08
1.01749e-06
1.81502e-08
1.01864e-06
3.30736e-08
1.01841e-06
2.49159e-08
1.01832e-06
3.62893e-08
1.01886e-06
3.47067e-08
1.01731e-06
4.50794e-08
1.01716e-06
4.13382e-08
1.01644e-06
6.00585e-08
1.01453e-06
5.34383e-08
1.0135e-06
7.47809e-08
1.01209e-06
7.31712e-08
1.01053e-06
9.54657e-08
1.00925e-06
9.71991e-08
1.00863e-06
1.23357e-07
1.00825e-06
1.30627e-07
1.00897e-06
1.60018e-07
1.72945e-07
1.01019e-06
1.00037e-06
2.94734e-09
1.00148e-06
1.35521e-09
1.0024e-06
7.11967e-09
1.00398e-06
4.39722e-09
1.0056e-06
1.18214e-08
1.00671e-06
5.78618e-09
1.00883e-06
1.62087e-08
1.00963e-06
8.0747e-09
1.01157e-06
1.82096e-08
1.01268e-06
1.24468e-08
1.01431e-06
2.00623e-08
1.01505e-06
1.59511e-08
1.01705e-06
2.53058e-08
1.01675e-06
1.84508e-08
1.01892e-06
3.09018e-08
1.0186e-06
2.52331e-08
1.01962e-06
3.52707e-08
1.01994e-06
3.43805e-08
1.02036e-06
4.46656e-08
1.01969e-06
4.20068e-08
1.02125e-06
5.84976e-08
1.01956e-06
5.51297e-08
1.02091e-06
7.34293e-08
1.02026e-06
7.38191e-08
1.02169e-06
9.40406e-08
1.0212e-06
9.76847e-08
1.02443e-06
1.20128e-07
1.02609e-06
1.28968e-07
1.03045e-06
1.55662e-07
1.68014e-07
1.03538e-06
1.00032e-06
2.63051e-09
1.00107e-06
6.02997e-10
1.00191e-06
6.27824e-09
1.0032e-06
3.10966e-09
1.00478e-06
1.02393e-08
1.00589e-06
4.67521e-09
1.00809e-06
1.40143e-08
1.0089e-06
7.26197e-09
1.01104e-06
1.60672e-08
1.01213e-06
1.13534e-08
1.01391e-06
1.82888e-08
1.01501e-06
1.48453e-08
1.01694e-06
2.33791e-08
1.01739e-06
1.79986e-08
1.01945e-06
2.88443e-08
1.02003e-06
2.46499e-08
1.02118e-06
3.41241e-08
1.02245e-06
3.31141e-08
1.02322e-06
4.38869e-08
1.02388e-06
4.13477e-08
1.02559e-06
5.67935e-08
1.02594e-06
5.47759e-08
1.02768e-06
7.16879e-08
1.02898e-06
7.25196e-08
1.03124e-06
9.17848e-08
1.03363e-06
9.52954e-08
1.03744e-06
1.16314e-07
1.04202e-06
1.24395e-07
1.0486e-06
1.49075e-07
1.59858e-07
1.05676e-06
1.00045e-06
2.17888e-09
1.00079e-06
2.63939e-10
1.00196e-06
5.10448e-09
1.00266e-06
2.41689e-09
1.00464e-06
8.25579e-09
1.00523e-06
4.08277e-09
1.00782e-06
1.14259e-08
1.00845e-06
6.63212e-09
1.01088e-06
1.36352e-08
1.01195e-06
1.02912e-08
1.0141e-06
1.61348e-08
1.01519e-06
1.37555e-08
1.01761e-06
2.09566e-08
1.01827e-06
1.73453e-08
1.02081e-06
2.6299e-08
1.0217e-06
2.37568e-08
1.02372e-06
3.21122e-08
1.02506e-06
3.17736e-08
1.0272e-06
4.17386e-08
1.02808e-06
4.04707e-08
1.03111e-06
5.37678e-08
1.03217e-06
5.37091e-08
1.03547e-06
6.83885e-08
1.0375e-06
7.04921e-08
1.04192e-06
8.7365e-08
1.045e-06
9.22174e-08
1.05103e-06
1.10281e-07
1.05679e-06
1.18633e-07
1.06547e-06
1.40392e-07
1.51077e-07
1.07426e-06
1.00048e-06
1.69849e-09
1.00068e-06
6.48043e-11
1.00185e-06
3.9365e-09
1.00244e-06
1.82717e-09
1.0044e-06
6.29628e-09
1.00508e-06
3.40034e-09
1.00763e-06
8.8799e-09
1.00848e-06
5.77464e-09
1.01095e-06
1.11662e-08
1.01227e-06
8.97693e-09
1.01453e-06
1.38745e-08
1.01597e-06
1.23123e-08
1.01852e-06
1.84026e-08
1.01969e-06
1.61746e-08
1.02244e-06
2.35572e-08
1.02394e-06
2.22576e-08
1.02637e-06
2.96762e-08
1.02833e-06
2.98191e-08
1.03106e-06
3.90023e-08
1.03288e-06
3.86561e-08
1.0364e-06
5.02441e-08
1.03871e-06
5.14026e-08
1.04284e-06
6.42524e-08
1.0461e-06
6.72367e-08
1.05143e-06
8.20337e-08
1.05622e-06
8.74266e-08
1.06323e-06
1.03274e-07
1.07052e-06
1.11341e-07
1.08047e-06
1.30443e-07
1.4029e-07
1.09126e-06
1.00049e-06
1.20637e-09
1.0006e-06
-4.40922e-11
1.00188e-06
2.65864e-09
1.00242e-06
1.28321e-09
1.00442e-06
4.30331e-09
1.00519e-06
2.6216e-09
1.0077e-06
6.37676e-09
1.0088e-06
4.67478e-09
1.01132e-06
8.64768e-09
1.01282e-06
7.4711e-09
1.01533e-06
1.13704e-08
1.01697e-06
1.06674e-08
1.01981e-06
1.5559e-08
1.02137e-06
1.46188e-08
1.02445e-06
2.04785e-08
1.02636e-06
2.03429e-08
1.02942e-06
2.66199e-08
1.03172e-06
2.75164e-08
1.03529e-06
3.54311e-08
1.03768e-06
3.62706e-08
1.042e-06
4.59264e-08
1.04513e-06
4.82668e-08
1.05024e-06
5.91402e-08
1.05436e-06
6.31195e-08
1.06085e-06
7.55461e-08
1.0667e-06
8.1574e-08
1.07482e-06
9.51589e-08
1.08311e-06
1.03046e-07
1.0943e-06
1.19258e-07
1.29024e-07
1.10556e-06
1.00049e-06
7.16324e-10
1.00063e-06
-1.8741e-10
1.00188e-06
1.40787e-09
1.00258e-06
5.89398e-10
1.00449e-06
2.39542e-09
1.00556e-06
1.54935e-09
1.00794e-06
3.99708e-09
1.00939e-06
3.22633e-09
1.0119e-06
6.1323e-09
1.0137e-06
5.67011e-09
1.01635e-06
8.72794e-09
1.01832e-06
8.69193e-09
1.02133e-06
1.25469e-08
1.02337e-06
1.25829e-08
1.02665e-06
1.71932e-08
1.0291e-06
1.78923e-08
1.03254e-06
2.31878e-08
1.03542e-06
2.46321e-08
1.03946e-06
3.13884e-08
1.04262e-06
3.3118e-08
1.04745e-06
4.10939e-08
1.05146e-06
4.42536e-08
1.05723e-06
5.33673e-08
1.0624e-06
5.79561e-08
1.06951e-06
6.84342e-08
1.07646e-06
7.4624e-08
1.08536e-06
8.62611e-08
1.09463e-06
9.3777e-08
1.10636e-06
1.07523e-07
1.16555e-07
1.11883e-06
1.00045e-06
2.68128e-10
1.0007e-06
-4.42505e-10
1.00197e-06
1.42114e-10
1.00287e-06
-3.13044e-10
1.00475e-06
5.14716e-10
1.00612e-06
1.83971e-10
1.00843e-06
1.68096e-09
1.01019e-06
1.46775e-09
1.01275e-06
3.578e-09
1.01481e-06
3.61034e-09
1.01762e-06
5.91489e-09
1.0199e-06
6.41377e-09
1.0231e-06
9.34657e-09
1.02557e-06
1.01076e-08
1.02908e-06
1.36815e-08
1.032e-06
1.49742e-08
1.03583e-06
1.93634e-08
1.03921e-06
2.1252e-08
1.04373e-06
2.68702e-08
1.04755e-06
2.92978e-08
1.05285e-06
3.57876e-08
1.05765e-06
3.94551e-08
1.064e-06
4.70147e-08
1.07001e-06
5.1949e-08
1.07772e-06
6.07259e-08
1.08552e-06
6.68203e-08
1.0951e-06
7.6686e-08
1.10505e-06
8.38265e-08
1.11738e-06
9.51914e-08
1.03763e-07
1.13017e-06
1.00042e-06
-1.53091e-10
1.00088e-06
-8.96616e-10
1.00215e-06
-1.12946e-09
1.00335e-06
-1.51824e-09
1.00524e-06
-1.37035e-09
1.00691e-06
-1.49331e-09
1.00922e-06
-6.2562e-10
1.01125e-06
-5.66111e-10
1.01389e-06
9.47498e-10
1.01621e-06
1.2905e-09
1.01917e-06
2.95301e-09
1.02178e-06
3.79953e-09
1.02512e-06
6.00988e-09
1.02804e-06
7.18779e-09
1.03172e-06
9.99688e-09
1.03511e-06
1.15867e-08
1.03924e-06
1.52338e-08
1.04314e-06
1.73546e-08
1.04802e-06
2.19887e-08
1.05248e-06
2.48397e-08
1.05816e-06
3.01005e-08
1.06367e-06
3.39478e-08
1.07045e-06
4.02357e-08
1.07724e-06
4.51632e-08
1.08542e-06
5.25382e-08
1.09391e-06
5.83387e-08
1.10396e-06
6.66337e-08
1.1145e-06
7.3283e-08
1.12705e-06
8.26386e-08
9.03158e-08
1.1405e-06
1.00039e-06
-5.40556e-10
1.00103e-06
-1.54173e-09
1.00239e-06
-2.49126e-09
1.00388e-06
-3.00853e-09
1.00587e-06
-3.3522e-09
1.00781e-06
-3.44111e-09
1.01021e-06
-3.01722e-09
1.01249e-06
-2.85364e-09
1.01525e-06
-1.8069e-09
1.01784e-06
-1.29681e-09
1.02097e-06
-1.84251e-10
1.02393e-06
8.44688e-10
1.02742e-06
2.52161e-09
1.03074e-06
3.86164e-09
1.03463e-06
6.10799e-09
1.03843e-06
7.79016e-09
1.04287e-06
1.07955e-08
1.04722e-06
1.30048e-08
1.05243e-06
1.6779e-08
1.05746e-06
1.9807e-08
1.06348e-06
2.40756e-08
1.0696e-06
2.78304e-08
1.07676e-06
3.30758e-08
1.08414e-06
3.7786e-08
1.09273e-06
4.39499e-08
1.10175e-06
4.93114e-08
1.11219e-06
5.61951e-08
1.12322e-06
6.22535e-08
1.13601e-06
6.98538e-08
7.68917e-08
1.14943e-06
1.00045e-06
-9.9491e-10
1.00142e-06
-2.51089e-09
1.00301e-06
-4.08012e-09
1.00486e-06
-4.85645e-09
1.00701e-06
-5.50362e-09
1.00923e-06
-5.66115e-09
1.01173e-06
-5.51754e-09
1.01424e-06
-5.35973e-09
1.01713e-06
-4.69715e-09
1.01997e-06
-4.14064e-09
1.02321e-06
-3.42194e-09
1.02646e-06
-2.40991e-09
1.03009e-06
-1.10671e-09
1.03373e-06
2.2009e-10
1.03782e-06
2.02328e-09
1.04196e-06
3.64555e-09
1.04668e-06
6.08219e-09
1.05143e-06
8.25149e-09
1.05691e-06
1.12985e-08
1.06243e-06
1.42862e-08
1.06876e-06
1.77488e-08
1.07538e-06
2.12048e-08
1.08286e-06
2.55992e-08
1.09073e-06
2.99192e-08
1.09966e-06
3.50162e-08
1.10912e-06
3.9857e-08
1.11978e-06
4.55295e-08
1.13108e-06
5.0955e-08
1.14387e-06
5.70682e-08
6.29289e-08
1.15783e-06
1.0005e-06
-1.49372e-09
1.00186e-06
-3.87285e-09
1.00384e-06
-6.05676e-09
1.00607e-06
-7.09366e-09
1.00846e-06
-7.88492e-09
1.01091e-06
-8.11835e-09
1.01357e-06
-8.16971e-09
1.0163e-06
-8.09139e-09
1.01937e-06
-7.76774e-09
1.02249e-06
-7.2653e-09
1.02594e-06
-6.8655e-09
1.02947e-06
-5.94542e-09
1.03328e-06
-4.91229e-09
1.03726e-06
-3.76752e-09
1.04157e-06
-2.28638e-09
1.04604e-06
-8.16639e-10
1.05102e-06
1.10039e-09
1.05611e-06
3.15567e-09
1.06183e-06
5.58361e-09
1.06778e-06
8.33246e-09
1.07441e-06
1.11174e-08
1.08144e-06
1.41774e-08
1.08917e-06
1.78668e-08
1.09739e-06
2.17005e-08
1.1066e-06
2.58121e-08
1.1164e-06
3.00559e-08
1.12729e-06
3.46379e-08
1.13892e-06
3.93277e-08
1.1517e-06
4.42818e-08
4.93892e-08
1.16524e-06
1.00089e-06
-2.38848e-09
1.0029e-06
-5.87341e-09
1.00533e-06
-8.49305e-09
1.0079e-06
-9.66141e-09
1.01049e-06
-1.04718e-08
1.01317e-06
-1.07988e-08
1.01601e-06
-1.10178e-08
1.01902e-06
-1.10964e-08
1.02229e-06
-1.10401e-08
1.02569e-06
-1.06627e-08
1.0293e-06
-1.04737e-08
1.03304e-06
-9.68861e-09
1.03699e-06
-8.85875e-09
1.04118e-06
-7.965e-09
1.04568e-06
-6.77957e-09
1.05036e-06
-5.50036e-09
1.05553e-06
-4.06468e-09
1.0609e-06
-2.22205e-09
1.06675e-06
-2.64245e-10
1.07304e-06
2.0481e-09
1.07993e-06
4.22387e-09
1.08727e-06
6.83393e-09
1.09521e-06
9.93074e-09
1.1037e-06
1.32109e-08
1.11307e-06
1.64431e-08
1.12311e-06
2.0018e-08
1.13409e-06
2.36589e-08
1.14589e-06
2.75222e-08
1.15878e-06
3.13928e-08
3.53957e-08
1.17277e-06
1.00183e-06
-4.21855e-09
1.00526e-06
-9.30303e-09
1.00852e-06
-1.17578e-08
1.01147e-06
-1.26029e-08
1.01426e-06
-1.32677e-08
1.01722e-06
-1.37588e-08
1.02034e-06
-1.41315e-08
1.02355e-06
-1.43084e-08
1.02686e-06
-1.43571e-08
1.03028e-06
-1.40765e-08
1.03375e-06
-1.39445e-08
1.03733e-06
-1.32686e-08
1.04111e-06
-1.26361e-08
1.04514e-06
-1.19952e-08
1.04946e-06
-1.11035e-08
1.054e-06
-1.00375e-08
1.05891e-06
-8.97731e-09
1.06412e-06
-7.42854e-09
1.06982e-06
-5.96337e-09
1.07601e-06
-4.15063e-09
1.08274e-06
-2.50342e-09
1.08996e-06
-3.80722e-10
1.09775e-06
2.13605e-09
1.10621e-06
4.75121e-09
1.11555e-06
7.10047e-09
1.12571e-06
9.86432e-09
1.13674e-06
1.26238e-08
1.1486e-06
1.56677e-08
1.16129e-06
1.86957e-08
2.18601e-08
1.17483e-06
1.00301e-06
-7.23056e-09
1.00687e-06
-1.31582e-08
1.00972e-06
-1.46153e-08
1.01187e-06
-1.47525e-08
1.01376e-06
-1.51548e-08
1.0155e-06
-1.55018e-08
1.01706e-06
-1.56905e-08
1.01845e-06
-1.56924e-08
1.01962e-06
-1.55273e-08
1.02067e-06
-1.51336e-08
1.02153e-06
-1.47949e-08
1.02247e-06
-1.42159e-08
1.02357e-06
-1.37299e-08
1.02473e-06
-1.31603e-08
1.02605e-06
-1.24228e-08
1.02767e-06
-1.16549e-08
1.02962e-06
-1.09315e-08
1.03201e-06
-9.81855e-09
1.03478e-06
-8.73178e-09
1.0382e-06
-7.56931e-09
1.0422e-06
-6.49945e-09
1.04691e-06
-5.09729e-09
1.05254e-06
-3.4966e-09
1.05911e-06
-1.81804e-09
1.06652e-06
-3.05415e-10
1.07507e-06
1.31052e-09
1.08477e-06
2.92372e-09
1.09577e-06
4.66899e-09
1.10802e-06
6.45111e-09
8.15151e-09
1.12173e-06
9.92769e-07
9.79611e-07
9.64996e-07
9.50243e-07
9.35089e-07
9.19587e-07
9.03896e-07
8.88204e-07
8.72677e-07
8.57543e-07
8.42748e-07
8.28532e-07
8.14802e-07
8.01642e-07
7.89219e-07
7.77564e-07
7.66633e-07
7.56814e-07
7.48083e-07
7.40513e-07
7.34014e-07
7.28917e-07
7.2542e-07
7.23602e-07
7.23297e-07
7.24607e-07
7.27531e-07
7.322e-07
7.38651e-07
7.46802e-07
2.25973e-07
-1.25449e-07
3.18413e-07
-9.244e-08
4.05037e-07
-8.66246e-08
4.70776e-07
-6.57387e-08
5.30965e-07
-6.01894e-08
5.84278e-07
-5.33124e-08
6.3185e-07
-4.75725e-08
6.94661e-07
-6.28111e-08
7.44988e-07
-5.03269e-08
-1.38174e-07
8.83162e-07
6.71664e-07
-1.80591e-07
7.2042e-07
-1.41197e-07
7.69162e-07
-1.35367e-07
8.07168e-07
-1.03744e-07
8.3866e-07
-9.16814e-08
8.6921e-07
-8.38626e-08
9.08628e-07
-8.69898e-08
9.48641e-07
-1.02824e-07
9.97991e-07
-9.96777e-08
-1.73771e-07
1.03359e-06
8.76606e-07
-1.91155e-07
8.91602e-07
-1.56193e-07
8.96411e-07
-1.40176e-07
9.23298e-07
-1.3063e-07
9.32261e-07
-1.00645e-07
9.58997e-07
-1.10598e-07
9.63732e-07
-9.17249e-08
1.00619e-06
-1.45281e-07
1.03103e-06
-1.24523e-07
-2.05397e-07
1.06266e-06
9.59869e-07
-1.85641e-07
9.64942e-07
-1.61266e-07
9.63869e-07
-1.39103e-07
9.69769e-07
-1.36531e-07
9.84717e-07
-1.15593e-07
9.99497e-07
-1.25377e-07
1.0099e-06
-1.02127e-07
1.01756e-06
-1.52939e-07
1.04079e-06
-1.4775e-07
-2.14509e-07
1.0499e-06
9.98643e-07
-1.741e-07
1.0011e-06
-1.63719e-07
9.97279e-07
-1.35285e-07
1.00116e-06
-1.40407e-07
1.00344e-06
-1.17883e-07
1.01549e-06
-1.37418e-07
1.02455e-06
-1.11188e-07
1.03013e-06
-1.5852e-07
1.04061e-06
-1.5823e-07
-2.17223e-07
1.04332e-06
1.02682e-06
-1.65547e-07
1.02118e-06
-1.58076e-07
1.0206e-06
-1.34709e-07
1.021e-06
-1.40803e-07
1.0258e-06
-1.22685e-07
1.02922e-06
-1.40832e-07
1.03895e-06
-1.20921e-07
1.03771e-06
-1.57276e-07
1.04469e-06
-1.65216e-07
-2.1143e-07
1.0389e-06
1.04681e-06
-1.55603e-07
1.04258e-06
-1.53839e-07
1.04024e-06
-1.32374e-07
1.03886e-06
-1.39419e-07
1.0388e-06
-1.22632e-07
1.03903e-06
-1.4106e-07
1.04595e-06
-1.27835e-07
1.04452e-06
-1.55848e-07
1.0445e-06
-1.65192e-07
-2.04942e-07
1.03801e-06
1.06663e-06
-1.47973e-07
1.0592e-06
-1.46408e-07
1.05586e-06
-1.29041e-07
1.05232e-06
-1.3588e-07
1.05286e-06
-1.23172e-07
1.04956e-06
-1.37755e-07
1.05223e-06
-1.3051e-07
1.04873e-06
-1.52343e-07
1.04527e-06
-1.61731e-07
-1.95765e-07
1.03609e-06
1.08233e-06
-1.39049e-07
1.07475e-06
-1.38826e-07
1.07022e-06
-1.24507e-07
1.06496e-06
-1.3062e-07
1.06235e-06
-1.20562e-07
1.05765e-06
-1.33055e-07
1.05638e-06
-1.29246e-07
1.05137e-06
-1.47327e-07
1.04543e-06
-1.5579e-07
-1.85519e-07
1.03518e-06
1.09678e-06
-1.30267e-07
1.08795e-06
-1.29995e-07
1.08192e-06
-1.18479e-07
1.07497e-06
-1.23667e-07
1.07096e-06
-1.16555e-07
1.06459e-06
-1.26679e-07
1.06014e-06
-1.24803e-07
1.05327e-06
-1.40458e-07
1.04547e-06
-1.47991e-07
-1.73326e-07
1.03328e-06
1.10914e-06
-1.20572e-07
1.09951e-06
-1.20365e-07
1.0922e-06
-1.11176e-07
1.08415e-06
-1.15615e-07
1.07784e-06
-1.10238e-07
1.06993e-06
-1.18773e-07
1.0632e-06
-1.18074e-07
1.05477e-06
-1.32024e-07
1.04508e-06
-1.38303e-07
-1.59793e-07
1.03155e-06
1.1199e-06
-1.10301e-07
1.10949e-06
-1.09958e-07
1.1009e-06
-1.02586e-07
1.09149e-06
-1.06199e-07
1.0836e-06
-1.0235e-07
1.07446e-06
-1.09639e-07
1.06587e-06
-1.09476e-07
1.05543e-06
-1.21592e-07
1.04435e-06
-1.2722e-07
-1.45596e-07
1.03015e-06
1.12944e-06
-9.9235e-08
1.11827e-06
-9.87945e-08
1.10856e-06
-9.28724e-08
1.09814e-06
-9.57817e-08
1.08868e-06
-9.2892e-08
1.07817e-06
-9.91287e-08
1.0681e-06
-9.94036e-08
1.05634e-06
-1.09833e-07
1.04392e-06
-1.14798e-07
-1.30242e-07
1.02857e-06
1.13773e-06
-8.75312e-08
1.12585e-06
-8.69149e-08
1.11509e-06
-8.2117e-08
1.10368e-06
-8.43758e-08
1.09306e-06
-8.22687e-08
1.08138e-06
-8.74443e-08
1.06996e-06
-8.79836e-08
1.05693e-06
-9.68101e-08
1.04338e-06
-1.01243e-07
-1.14149e-07
1.02729e-06
1.14539e-06
-7.50927e-08
1.13283e-06
-7.43531e-08
1.1212e-06
-7.04912e-08
1.10892e-06
-7.20972e-08
1.09719e-06
-7.0537e-08
1.08449e-06
-7.47454e-08
1.072e-06
-7.54911e-08
1.05789e-06
-8.26958e-08
1.04321e-06
-8.65684e-08
-9.7151e-08
1.02621e-06
1.15225e-06
-6.21023e-08
1.13902e-06
-6.11248e-08
1.12661e-06
-5.8073e-08
1.11357e-06
-5.90654e-08
1.101e-06
-5.79584e-08
1.08736e-06
-6.11138e-08
1.07381e-06
-6.19371e-08
1.05873e-06
-6.76116e-08
1.04314e-06
-7.09793e-08
-7.94046e-08
1.02539e-06
1.15886e-06
-4.81931e-08
1.14478e-06
-4.70391e-08
1.13148e-06
-4.47751e-08
1.11756e-06
-4.51426e-08
1.10403e-06
-4.44262e-08
1.08939e-06
-4.64759e-08
1.07477e-06
-4.73146e-08
1.05853e-06
-5.13778e-08
1.04178e-06
-5.42326e-08
-6.04614e-08
1.02284e-06
1.15932e-06
-3.26869e-08
1.14371e-06
-3.14214e-08
1.12882e-06
-2.98866e-08
1.11337e-06
-2.96966e-08
1.0982e-06
-2.92572e-08
1.08193e-06
-3.02029e-08
1.06559e-06
-3.09778e-08
1.04769e-06
-3.34738e-08
1.02923e-06
-3.57712e-08
-3.98243e-08
1.00859e-06
1.1029e-06
-1.38592e-08
1.08467e-06
-1.31897e-08
1.06718e-06
-1.24026e-08
1.04969e-06
-1.22021e-08
1.0325e-06
-1.20729e-08
1.01476e-06
-1.24635e-08
9.96839e-07
-1.30527e-08
9.77562e-07
-1.41971e-08
9.57343e-07
-1.55521e-08
-1.73385e-08
9.34857e-07
7.32943e-07
7.19753e-07
7.07351e-07
6.95149e-07
6.83076e-07
6.70612e-07
6.5756e-07
6.43362e-07
6.2781e-07
6.10472e-07
1.35614e-07
-1.35614e-07
1.72083e-07
-3.64691e-08
1.47959e-07
2.41245e-08
1.59812e-07
-1.18537e-08
1.15044e-07
4.47684e-08
-1.33913e-07
2.48957e-07
-4.27843e-07
2.93931e-07
-6.43568e-07
2.15725e-07
-8.00803e-07
1.57235e-07
-8.94377e-07
9.35735e-08
-9.33781e-07
3.94038e-08
-9.26433e-07
-7.34723e-09
-8.84532e-07
-4.1901e-08
-8.17562e-07
-6.69705e-08
-7.31035e-07
-8.65273e-08
-6.26496e-07
-1.04539e-07
-5.0994e-07
-1.16556e-07
-3.84654e-07
-1.25286e-07
-2.49714e-07
-1.3494e-07
-1.1368e-07
-1.36034e-07
1.00725e-08
-1.23752e-07
1.22018e-07
-1.11946e-07
2.16349e-07
-9.43308e-08
2.93033e-07
-7.66835e-08
3.52371e-07
-5.93389e-08
3.95821e-07
-4.34494e-08
4.2473e-07
-2.89096e-08
4.41365e-07
-1.6635e-08
4.48148e-07
-6.78308e-09
4.48107e-07
4.12971e-11
4.43137e-07
4.97069e-09
4.34551e-07
8.58507e-09
4.21869e-07
1.26827e-08
4.05668e-07
1.62011e-08
3.85599e-07
2.0069e-08
3.64202e-07
2.13965e-08
3.42135e-07
2.20675e-08
3.23193e-07
1.8942e-08
3.05824e-07
1.73686e-08
1.20994e-08
1.03903e-07
-2.39517e-07
1.4366e-07
-7.62265e-08
1.68044e-07
-2.58938e-10
3.93636e-08
1.16826e-07
-2.06897e-07
2.91029e-07
-4.51195e-07
4.93255e-07
-6.24547e-07
4.67282e-07
-7.60564e-07
3.51742e-07
-8.56711e-07
2.53383e-07
-9.09082e-07
1.45944e-07
-9.15138e-07
4.54599e-08
-8.82243e-07
-4.02424e-08
-8.21501e-07
-1.02643e-07
-7.3701e-07
-1.51461e-07
-6.42664e-07
-1.80873e-07
-5.34125e-07
-2.13078e-07
-4.10685e-07
-2.39995e-07
-2.78695e-07
-2.57277e-07
-1.39719e-07
-2.73916e-07
-5.77033e-09
-2.69983e-07
1.22342e-07
-2.51865e-07
2.3573e-07
-2.25334e-07
3.32834e-07
-1.91435e-07
4.14096e-07
-1.57946e-07
4.80655e-07
-1.25898e-07
5.34452e-07
-9.72465e-08
5.76604e-07
-7.1061e-08
6.08533e-07
-4.85644e-08
6.31317e-07
-2.95674e-08
6.47187e-07
-1.58283e-08
6.57646e-07
-5.48865e-09
6.65062e-07
1.16995e-09
6.69502e-07
8.24203e-09
6.73069e-07
1.2634e-08
6.74245e-07
1.88937e-08
6.74934e-07
2.07074e-08
6.72088e-07
2.49136e-08
6.67992e-07
2.30373e-08
6.60562e-07
2.47993e-08
2.15672e-08
3.66378e-08
-2.76155e-07
3.89877e-09
-4.34875e-08
-8.46536e-09
1.21052e-08
-1.36667e-07
2.45028e-07
-3.05813e-07
4.60175e-07
-4.51901e-07
6.39343e-07
-5.52454e-07
5.67836e-07
-6.30893e-07
4.30182e-07
-6.88401e-07
3.1089e-07
-7.14759e-07
1.72303e-07
-7.05315e-07
3.6016e-08
-6.58409e-07
-8.71491e-08
-5.91718e-07
-1.69334e-07
-5.08965e-07
-2.34214e-07
-4.15475e-07
-2.74364e-07
-3.19235e-07
-3.09318e-07
-2.09251e-07
-3.4998e-07
-8.89144e-08
-3.77613e-07
3.11662e-08
-3.93996e-07
1.49408e-07
-3.88225e-07
2.59086e-07
-3.61542e-07
3.54471e-07
-3.20719e-07
4.34139e-07
-2.71103e-07
4.98704e-07
-2.22511e-07
5.50181e-07
-1.77375e-07
5.91379e-07
-1.38445e-07
6.2491e-07
-1.04591e-07
6.51973e-07
-7.56279e-08
6.72832e-07
-5.04256e-08
6.88515e-07
-3.15114e-08
7.00428e-07
-1.74017e-08
7.1106e-07
-9.46222e-09
7.20103e-07
-8.00772e-10
7.29296e-07
3.44119e-09
7.37058e-07
1.11315e-08
7.44978e-07
1.27871e-08
7.52692e-07
1.71997e-08
7.58756e-07
1.69732e-08
7.65278e-07
1.82769e-08
1.95727e-08
-6.784e-09
-2.69371e-07
-4.86454e-08
-1.62611e-09
-9.66487e-08
6.01085e-08
-1.97692e-07
3.46072e-07
-2.99796e-07
5.62279e-07
-3.73256e-07
7.12803e-07
-4.1205e-07
6.06629e-07
-4.53488e-07
4.7162e-07
-4.85019e-07
3.42422e-07
-4.96174e-07
1.83457e-07
-4.7586e-07
1.5702e-08
-4.25773e-07
-1.37237e-07
-3.53084e-07
-2.42022e-07
-2.73458e-07
-3.1384e-07
-1.86673e-07
-3.61148e-07
-9.44251e-08
-4.01566e-07
2.68096e-09
-4.47086e-07
1.04346e-07
-4.79278e-07
2.07542e-07
-4.97192e-07
3.05585e-07
-4.86267e-07
3.92969e-07
-4.48927e-07
4.68051e-07
-3.958e-07
5.30127e-07
-3.33178e-07
5.7936e-07
-2.71745e-07
6.17293e-07
-2.15307e-07
6.45421e-07
-1.66573e-07
6.66991e-07
-1.26162e-07
6.84901e-07
-9.35374e-08
6.99609e-07
-6.5134e-08
7.10635e-07
-4.25368e-08
7.18219e-07
-2.49865e-08
7.25504e-07
-1.6747e-08
7.33683e-07
-8.97995e-09
7.42985e-07
-5.86059e-09
7.52351e-07
1.76556e-09
7.59406e-07
5.73235e-09
7.66641e-07
9.9646e-09
7.71423e-07
1.21913e-08
7.78068e-07
1.16318e-08
1.37596e-08
-9.99857e-08
-1.69385e-07
-1.86456e-07
8.48444e-08
-1.72855e-07
4.6507e-08
-1.78335e-07
3.51552e-07
-1.81632e-07
5.65575e-07
-1.87793e-07
7.18965e-07
-1.99044e-07
6.1788e-07
-2.15395e-07
4.87971e-07
-2.27434e-07
3.5446e-07
-2.26264e-07
1.82288e-07
-2.01818e-07
-8.74386e-09
-1.55879e-07
-1.83176e-07
-9.10503e-08
-3.06851e-07
-1.97842e-08
-3.85106e-07
5.59275e-08
-4.3686e-07
1.36301e-07
-4.8194e-07
2.18158e-07
-5.28942e-07
3.03473e-07
-5.64594e-07
3.86187e-07
-5.79905e-07
4.59914e-07
-5.59994e-07
5.17201e-07
-5.06214e-07
5.61357e-07
-4.39955e-07
5.97673e-07
-3.69495e-07
6.27373e-07
-3.01444e-07
6.51997e-07
-2.39931e-07
6.71363e-07
-1.8594e-07
6.8532e-07
-1.40119e-07
6.95985e-07
-1.04202e-07
7.06276e-07
-7.5425e-08
7.15534e-07
-5.17948e-08
7.2227e-07
-3.17223e-08
7.26229e-07
-2.07061e-08
7.31215e-07
-1.39656e-08
7.37983e-07
-1.2629e-08
7.48078e-07
-8.32912e-09
7.56817e-07
-3.00725e-09
7.63607e-07
3.17503e-09
7.67441e-07
8.35761e-09
7.68749e-07
1.03238e-08
1.08811e-08
-1.64558e-07
-4.82732e-09
-1.73483e-07
9.37701e-08
-9.69688e-08
-3.00077e-08
-6.65266e-08
3.2111e-07
-3.67381e-08
5.35786e-07
-7.13907e-10
6.82941e-07
3.00551e-08
5.87111e-07
4.80564e-08
4.69969e-07
6.57928e-08
3.36724e-07
8.82643e-08
1.59816e-07
1.19533e-07
-4.00123e-08
1.53723e-07
-2.17366e-07
1.92846e-07
-3.45975e-07
2.38807e-07
-4.31067e-07
2.94787e-07
-4.92839e-07
3.58222e-07
-5.45376e-07
4.25404e-07
-5.96123e-07
4.92452e-07
-6.31642e-07
5.50707e-07
-6.3816e-07
5.98167e-07
-6.07455e-07
6.2957e-07
-5.37618e-07
6.44132e-07
-4.54518e-07
6.51529e-07
-3.76891e-07
6.57851e-07
-3.07767e-07
6.65281e-07
-2.47361e-07
6.74688e-07
-1.95347e-07
6.8458e-07
-1.5001e-07
6.92211e-07
-1.11834e-07
7.00061e-07
-8.32756e-08
7.08805e-07
-6.05387e-08
7.18753e-07
-4.167e-08
7.24949e-07
-2.69022e-08
7.29302e-07
-1.83184e-08
7.3247e-07
-1.57974e-08
7.3846e-07
-1.43183e-08
7.47436e-07
-1.19839e-08
7.54551e-07
-3.93949e-09
7.60912e-07
1.99618e-09
7.60682e-07
1.05539e-08
1.19175e-08
-1.86658e-07
1.81831e-07
-1.36299e-07
4.34109e-08
-1.39948e-07
-2.63584e-08
7.89809e-08
1.02181e-07
1.96844e-07
4.17923e-07
2.82281e-07
5.97504e-07
3.2034e-07
5.49052e-07
3.4718e-07
4.43129e-07
3.82437e-07
3.01466e-07
4.1531e-07
1.26944e-07
4.40785e-07
-6.54881e-08
4.5989e-07
-2.3647e-07
4.74876e-07
-3.60961e-07
4.95753e-07
-4.51944e-07
5.29656e-07
-5.26742e-07
5.75345e-07
-5.91065e-07
6.21114e-07
-6.41892e-07
6.59922e-07
-6.7045e-07
6.86692e-07
-6.6493e-07
6.99454e-07
-6.20216e-07
7.03544e-07
-5.41707e-07
6.98851e-07
-4.49825e-07
6.88387e-07
-3.66428e-07
6.79294e-07
-2.98674e-07
6.7444e-07
-2.42506e-07
6.74011e-07
-1.94919e-07
6.78767e-07
-1.54766e-07
6.85117e-07
-1.18184e-07
6.93065e-07
-9.12229e-08
7.01742e-07
-6.92157e-08
7.1401e-07
-5.39389e-08
7.25299e-07
-3.81909e-08
7.33446e-07
-2.64652e-08
7.37579e-07
-1.99308e-08
7.38747e-07
-1.54856e-08
7.43234e-07
-1.6471e-08
7.47238e-07
-7.94345e-09
7.53863e-07
-4.62913e-09
7.57016e-07
7.40122e-09
1.2274e-08
6.85345e-07
3.79648e-07
4.58605e-07
2.70151e-07
2.41899e-07
1.90347e-07
1.96754e-07
1.47326e-07
3.34385e-07
2.80293e-07
5.02089e-07
4.298e-07
6.10179e-07
4.40961e-07
6.78922e-07
3.74387e-07
7.28433e-07
2.51955e-07
7.58805e-07
9.65715e-08
7.70558e-07
-7.72409e-08
7.69374e-07
-2.35287e-07
7.65314e-07
-3.56901e-07
7.6979e-07
-4.5642e-07
7.88693e-07
-5.45645e-07
8.19676e-07
-6.22048e-07
8.44914e-07
-6.6713e-07
8.4788e-07
-6.73416e-07
8.32263e-07
-6.49313e-07
8.07157e-07
-5.9511e-07
7.80797e-07
-5.15348e-07
7.59046e-07
-4.28073e-07
7.42039e-07
-3.49421e-07
7.2982e-07
-2.86454e-07
7.23715e-07
-2.36402e-07
7.22566e-07
-1.9377e-07
7.25965e-07
-1.58164e-07
7.31086e-07
-1.23305e-07
7.37611e-07
-9.7748e-08
7.45109e-07
-7.67143e-08
7.55905e-07
-6.4735e-08
7.6921e-07
-5.14953e-08
7.80637e-07
-3.78921e-08
7.88515e-07
-2.78095e-08
7.90219e-07
-1.71893e-08
7.89988e-07
-1.62396e-08
7.89892e-07
-7.84723e-09
7.91309e-07
-6.04685e-09
7.95192e-07
3.51827e-09
9.02611e-09
1.00616e-06
4.07076e-07
9.58466e-07
3.17844e-07
8.56568e-07
2.92246e-07
7.11732e-07
2.92161e-07
6.482e-07
3.43825e-07
6.93948e-07
3.84052e-07
7.71683e-07
3.63226e-07
8.45451e-07
3.0062e-07
9.06622e-07
1.90784e-07
9.47351e-07
5.58425e-08
9.62542e-07
-9.24316e-08
9.65915e-07
-2.38661e-07
9.69674e-07
-3.6066e-07
9.79072e-07
-4.65818e-07
9.91963e-07
-5.58535e-07
9.98721e-07
-6.28806e-07
9.91721e-07
-6.60129e-07
9.62176e-07
-6.43872e-07
9.07525e-07
-5.94662e-07
8.486e-07
-5.36186e-07
8.0299e-07
-4.69738e-07
7.7314e-07
-3.98223e-07
7.56935e-07
-3.33217e-07
7.49982e-07
-2.79501e-07
7.47711e-07
-2.34131e-07
7.4868e-07
-1.94739e-07
7.54278e-07
-1.63762e-07
7.62893e-07
-1.31919e-07
7.70111e-07
-1.04967e-07
7.74716e-07
-8.13187e-08
7.78989e-07
-6.90079e-08
7.85883e-07
-5.839e-08
7.94025e-07
-4.60339e-08
7.99884e-07
-3.36682e-08
8.03179e-07
-2.04845e-08
8.0282e-07
-1.58808e-08
8.02654e-07
-7.68074e-09
8.03021e-07
-6.41413e-09
8.04179e-07
2.35994e-09
5.98026e-09
1.08666e-06
3.83072e-07
1.07323e-06
3.31277e-07
1.04873e-06
3.16751e-07
1.0326e-06
3.08289e-07
1.02603e-06
3.5039e-07
1.03844e-06
3.71643e-07
1.06629e-06
3.35373e-07
1.1062e-06
2.60714e-07
1.14473e-06
1.52258e-07
1.1683e-06
3.22722e-08
1.17961e-06
-1.03745e-07
1.18313e-06
-2.42175e-07
1.18539e-06
-3.62927e-07
1.1801e-06
-4.60529e-07
1.16229e-06
-5.40719e-07
1.12763e-06
-5.94153e-07
1.07185e-06
-6.04342e-07
1.00586e-06
-5.77882e-07
9.38315e-07
-5.27121e-07
8.74786e-07
-4.72656e-07
8.2892e-07
-4.23873e-07
8.04502e-07
-3.73805e-07
7.93451e-07
-3.22166e-07
7.90192e-07
-2.76241e-07
7.9007e-07
-2.3401e-07
7.88113e-07
-1.92782e-07
7.85905e-07
-1.61554e-07
7.88923e-07
-1.34937e-07
7.96566e-07
-1.12609e-07
8.02069e-07
-8.68219e-08
8.03601e-07
-7.05405e-08
8.03077e-07
-5.78652e-08
8.04302e-07
-4.72588e-08
8.05393e-07
-3.47601e-08
8.03936e-07
-1.90267e-08
8.02451e-07
-1.43963e-08
8.01654e-07
-6.8832e-09
8.04782e-07
-9.54258e-09
8.12357e-07
-5.21532e-09
1.08258e-09
1.08149e-06
3.51482e-07
1.09714e-06
3.15619e-07
1.11702e-06
2.96872e-07
1.13122e-06
2.94089e-07
1.16983e-06
3.11783e-07
1.21682e-06
3.24655e-07
1.25556e-06
2.96634e-07
1.29286e-06
2.23414e-07
1.3248e-06
1.20313e-07
1.34329e-06
1.37875e-08
1.3449e-06
-1.05362e-07
1.33322e-06
-2.30495e-07
1.3092e-06
-3.38901e-07
1.27297e-06
-4.243e-07
1.22057e-06
-4.88324e-07
1.15256e-06
-5.26134e-07
1.07586e-06
-5.27642e-07
1.00015e-06
-5.0218e-07
9.41353e-07
-4.6832e-07
8.99442e-07
-4.30746e-07