/*--------------------------------*- C++ -*----------------------------------*\
| =========                 |                                                 |
| \\      /  F ield         | OpenFOAM: The Open Source CFD Toolbox           |
|  \\    /   O peration     | Version:  2112                                  |
|   \\  /    A nd           | Website:  www.openfoam.com                      |
|    \\/     M anipulation  |                                                 |
\*---------------------------------------------------------------------------*/
FoamFile
{
    version     2.0;
    format      ascii;
    arch        "LSB;label=32;scalar=64";
    class       volVectorField;
    location    "0.49";
    object      U;
}
// * * * * * * * * * * * * * * * * * * * * * * * * * * * * * * * * * * * * * //

dimensions      [0 1 -1 0 0 0 0];

internalField   nonuniform List<vector> 
1880
(
(0.0989334 0.000564375 0)
(0.0984805 0.00118375 0)
(0.097204 0.00127005 0)
(0.0959509 0.00136026 0)
(0.0940315 0.00134159 0)
(0.0924703 0.00140429 0)
(0.0905261 0.00141032 0)
(0.0888813 0.00144974 0)
(0.0869015 0.00142868 0)
(0.0852631 0.00145052 0)
(0.0830899 0.001391 0)
(0.0815541 0.00145221 0)
(0.0790931 0.00140446 0)
(0.0776949 0.00144012 0)
(0.0748892 0.00142852 0)
(0.0736134 0.00150392 0)
(0.0703633 0.00148513 0)
(0.0691332 0.00159863 0)
(0.0654421 0.00159571 0)
(0.0639716 0.00178035 0)
(0.0599244 0.00185478 0)
(0.0577932 0.00203607 0)
(0.0534674 0.00217473 0)
(0.0502797 0.00252926 0)
(0.0453127 0.00279835 0)
(0.0407789 0.00307388 0)
(0.0349026 0.00374273 0)
(0.0282645 0.00395594 0)
(0.0219463 0.00478469 0)
(0.0109731 0.00285303 0)
(0.100347 0.000822311 0)
(0.0998134 0.00130639 0)
(0.100975 0.00174815 0)
(0.100566 0.00167669 0)
(0.101373 0.00189136 0)
(0.100872 0.00193081 0)
(0.101516 0.00199158 0)
(0.100692 0.00224253 0)
(0.101423 0.00203553 0)
(0.100421 0.00244688 0)
(0.100907 0.00222323 0)
(0.100086 0.00244885 0)
(0.100138 0.00253113 0)
(0.0992498 0.00255521 0)
(0.099496 0.00271689 0)
(0.0976578 0.00295249 0)
(0.0986658 0.00290969 0)
(0.0958219 0.00327591 0)
(0.0970313 0.00356585 0)
(0.0936262 0.00360853 0)
(0.0948617 0.00424003 0)
(0.0903072 0.00466242 0)
(0.0922746 0.00475658 0)
(0.0857194 0.00615076 0)
(0.0884066 0.00619614 0)
(0.0797888 0.00764325 0)
(0.0832504 0.00839654 0)
(0.0707905 0.00961478 0)
(0.0768951 0.0114781 0)
(0.0577014 0.0110447 0)
(0.100289 0.000405754 0)
(0.0998956 0.000662466 0)
(0.100723 0.000923052 0)
(0.100597 0.00115427 0)
(0.101276 0.00136309 0)
(0.101046 0.00119403 0)
(0.101803 0.00187716 0)
(0.101127 0.00129205 0)
(0.102279 0.00210241 0)
(0.10121 0.0016762 0)
(0.102461 0.00224496 0)
(0.10149 0.00182142 0)
(0.102358 0.00282932 0)
(0.101539 0.00169935 0)
(0.102483 0.00340969 0)
(0.100918 0.00224003 0)
(0.102746 0.00345354 0)
(0.10009 0.00316745 0)
(0.10237 0.00414753 0)
(0.0994049 0.00339782 0)
(0.101568 0.0058794 0)
(0.098052 0.00402573 0)
(0.100843 0.00713162 0)
(0.0957142 0.00601434 0)
(0.0998148 0.00901952 0)
(0.0929531 0.00781703 0)
(0.0976347 0.0124616 0)
(0.0897337 0.0105364 0)
(0.0940385 0.0157311 0)
(0.0851269 0.0145674 0)
(0.100203 0.000382921 0)
(0.0999059 0.000564599 0)
(0.100474 0.00100899 0)
(0.100275 0.00111532 0)
(0.100971 0.00149442 0)
(0.10057 0.00126322 0)
(0.101428 0.00193509 0)
(0.100832 0.00141039 0)
(0.101753 0.00214456 0)
(0.101108 0.0018057 0)
(0.102014 0.00228704 0)
(0.101296 0.00204355 0)
(0.102222 0.00284274 0)
(0.10143 0.00201948 0)
(0.102304 0.00346605 0)
(0.10138 0.00261805 0)
(0.102494 0.00355456 0)
(0.100894 0.00375957 0)
(0.102721 0.00414991 0)
(0.1003 0.00434158 0)
(0.102442 0.00573935 0)
(0.100037 0.00529397 0)
(0.101671 0.00712184 0)
(0.0993432 0.0073699 0)
(0.101301 0.00903083 0)
(0.0981035 0.00981305 0)
(0.100431 0.0118979 0)
(0.0975153 0.013192 0)
(0.0987285 0.0157051 0)
(0.0962745 0.0175479 0)
(0.100072 0.000354575 0)
(0.0999906 0.000278995 0)
(0.10024 0.000831589 0)
(0.100314 0.000613576 0)
(0.100604 0.00139706 0)
(0.100653 0.000658823 0)
(0.100946 0.00189649 0)
(0.101005 0.000854654 0)
(0.101225 0.00205504 0)
(0.101327 0.00133757 0)
(0.101473 0.00220879 0)
(0.101531 0.00161022 0)
(0.101713 0.00280707 0)
(0.101708 0.00169197 0)
(0.101819 0.00340367 0)
(0.101827 0.0023439 0)
(0.101935 0.00369522 0)
(0.10167 0.00332567 0)
(0.102116 0.00454949 0)
(0.101374 0.00392497 0)
(0.102026 0.00612091 0)
(0.101365 0.00503983 0)
(0.101525 0.00759606 0)
(0.101273 0.00704061 0)
(0.101251 0.00966996 0)
(0.100973 0.00942053 0)
(0.101005 0.01257 0)
(0.100885 0.0128092 0)
(0.100803 0.0162841 0)
(0.100962 0.017129 0)
(0.0999902 0.000298426 0)
(0.100084 0.00020015 0)
(0.100137 0.000752408 0)
(0.10032 0.000555055 0)
(0.100444 0.00126078 0)
(0.100625 0.000694575 0)
(0.100681 0.00174006 0)
(0.101028 0.000899269 0)
(0.100925 0.00194525 0)
(0.101361 0.00135036 0)
(0.101248 0.00210043 0)
(0.101524 0.00170637 0)
(0.101547 0.00262366 0)
(0.101771 0.00191744 0)
(0.101668 0.00318401 0)
(0.101988 0.00261049 0)
(0.101861 0.00354204 0)
(0.101962 0.00357716 0)
(0.102112 0.00444021 0)
(0.101909 0.00430706 0)
(0.102102 0.00585457 0)
(0.102139 0.0056003 0)
(0.101881 0.00733146 0)
(0.102244 0.00752198 0)
(0.102043 0.00939786 0)
(0.102232 0.00996145 0)
(0.102214 0.012046 0)
(0.102641 0.013223 0)
(0.102752 0.0156856 0)
(0.103079 0.0173505 0)
(0.099971 0.000296226 0)
(0.100101 7.77205e-05 0)
(0.100057 0.00068548 0)
(0.100315 0.000337067 0)
(0.100322 0.00111928 0)
(0.100593 0.000476301 0)
(0.100563 0.00152068 0)
(0.100977 0.000730206 0)
(0.100822 0.00171631 0)
(0.101346 0.00115469 0)
(0.101155 0.00192773 0)
(0.101552 0.00149837 0)
(0.101495 0.00244962 0)
(0.101843 0.00178708 0)
(0.101678 0.00300352 0)
(0.102151 0.00245316 0)
(0.101917 0.00350568 0)
(0.102299 0.00331663 0)
(0.102221 0.00448176 0)
(0.102435 0.00410328 0)
(0.102392 0.0058246 0)
(0.102791 0.0054408 0)
(0.102449 0.00731768 0)
(0.103147 0.0072651 0)
(0.102828 0.00937877 0)
(0.103476 0.00957192 0)
(0.103425 0.0119446 0)
(0.104159 0.0125961 0)
(0.104324 0.0153851 0)
(0.105288 0.0162886 0)
(0.0999635 0.000235072 0)
(0.100108 4.09876e-05 0)
(0.100061 0.000565585 0)
(0.100272 0.000279245 0)
(0.100314 0.000917017 0)
(0.100535 0.000449602 0)
(0.100543 0.00126618 0)
(0.100912 0.000711687 0)
(0.10082 0.00148204 0)
(0.101289 0.00110379 0)
(0.101194 0.00171532 0)
(0.101539 0.00145565 0)
(0.101567 0.00221111 0)
(0.101892 0.0017952 0)
(0.10183 0.00274935 0)
(0.102252 0.00245589 0)
(0.102171 0.0033017 0)
(0.102532 0.00328211 0)
(0.102541 0.0042723 0)
(0.102864 0.00413933 0)
(0.102857 0.00551178 0)
(0.103347 0.00547764 0)
(0.103208 0.0070007 0)
(0.103846 0.00720174 0)
(0.103865 0.008948 0)
(0.104486 0.00945849 0)
(0.104707 0.0113099 0)
(0.105467 0.0122417 0)
(0.10602 0.0144661 0)
(0.106885 0.0156929 0)
(0.0999705 0.00019818 0)
(0.100104 1.24443e-05 0)
(0.100053 0.00045793 0)
(0.100247 0.000204272 0)
(0.100304 0.000733336 0)
(0.100494 0.000365716 0)
(0.100565 0.00101743 0)
(0.10086 0.000616136 0)
(0.100864 0.00124327 0)
(0.101271 0.00095851 0)
(0.101258 0.00150788 0)
(0.10158 0.00129793 0)
(0.10167 0.00197555 0)
(0.101988 0.00167229 0)
(0.102013 0.00250365 0)
(0.102411 0.00229184 0)
(0.102444 0.00310917 0)
(0.102814 0.00306632 0)
(0.102905 0.00406145 0)
(0.10329 0.00394695 0)
(0.103386 0.00522018 0)
(0.103904 0.00525584 0)
(0.103948 0.00665463 0)
(0.104607 0.00688394 0)
(0.104811 0.00850708 0)
(0.105491 0.00897853 0)
(0.105912 0.0107203 0)
(0.106763 0.0115099 0)
(0.107435 0.0136138 0)
(0.108519 0.0145568 0)
(0.0999802 0.000143909 0)
(0.100085 9.43878e-07 0)
(0.100082 0.000326065 0)
(0.100218 0.000160835 0)
(0.100327 0.000521752 0)
(0.100478 0.00031155 0)
(0.100603 0.000753472 0)
(0.10085 0.000533708 0)
(0.100929 0.000986408 0)
(0.10128 0.000831024 0)
(0.101359 0.0012618 0)
(0.10164 0.0011581 0)
(0.101813 0.00169671 0)
(0.102106 0.00155426 0)
(0.102233 0.0021981 0)
(0.102594 0.0021475 0)
(0.102752 0.00281527 0)
(0.103113 0.00288329 0)
(0.103298 0.00372507 0)
(0.103725 0.00376646 0)
(0.103934 0.00481415 0)
(0.104452 0.00500511 0)
(0.104696 0.00617923 0)
(0.105323 0.00654775 0)
(0.105737 0.00788379 0)
(0.106442 0.00849027 0)
(0.107043 0.00994288 0)
(0.10792 0.0107677 0)
(0.108797 0.0125049 0)
(0.109909 0.0135446 0)
(0.0999853 9.56117e-05 0)
(0.100078 -1.02197e-05 0)
(0.100096 0.000204887 0)
(0.100208 9.45469e-05 0)
(0.100349 0.000335972 0)
(0.10048 0.000210458 0)
(0.100656 0.000516241 0)
(0.10087 0.000397749 0)
(0.101007 0.00073668 0)
(0.101335 0.000657221 0)
(0.101469 0.00100552 0)
(0.101744 0.000966887 0)
(0.101976 0.0014065 0)
(0.10226 0.00136062 0)
(0.102469 0.00188577 0)
(0.102816 0.00191178 0)
(0.103066 0.00249524 0)
(0.103442 0.0026074 0)
(0.103705 0.00334616 0)
(0.104162 0.00347289 0)
(0.104487 0.00435412 0)
(0.105006 0.00463303 0)
(0.105397 0.00563162 0)
(0.106046 0.00606127 0)
(0.106602 0.00721128 0)
(0.107343 0.0078254 0)
(0.10807 0.00909361 0)
(0.109024 0.00985902 0)
(0.109988 0.0113742 0)
(0.111169 0.0122948 0)
(0.0999928 4.72779e-05 0)
(0.100064 -2.67155e-05 0)
(0.100118 7.56991e-05 0)
(0.100211 2.43983e-05 0)
(0.100378 0.000146256 0)
(0.100513 0.000102197 0)
(0.100716 0.000288678 0)
(0.100925 0.000251761 0)
(0.101105 0.000495813 0)
(0.101415 0.000482489 0)
(0.101605 0.000745766 0)
(0.101872 0.000777371 0)
(0.102158 0.00110792 0)
(0.102444 0.0011604 0)
(0.102716 0.00155773 0)
(0.103067 0.00166821 0)
(0.103392 0.00214476 0)
(0.103785 0.00231849 0)
(0.104118 0.00293058 0)
(0.104605 0.00314714 0)
(0.10503 0.00386161 0)
(0.105554 0.00421339 0)
(0.10607 0.00503724 0)
(0.106744 0.00552696 0)
(0.107408 0.00647897 0)
(0.10819 0.00710905 0)
(0.109021 0.0081799 0)
(0.110015 0.0089239 0)
(0.111074 0.0101663 0)
(0.112291 0.0110636 0)
(0.0999957 4.8477e-06 0)
(0.10006 -6.40785e-05 0)
(0.100139 -4.87199e-05 0)
(0.100233 -8.9304e-05 0)
(0.100421 -4.64984e-05 0)
(0.100569 -6.74381e-05 0)
(0.100798 4.12218e-05 0)
(0.101017 3.58125e-05 0)
(0.101223 0.000210995 0)
(0.101536 0.000230606 0)
(0.101764 0.000426881 0)
(0.102032 0.000495337 0)
(0.102365 0.00074971 0)
(0.102658 0.000850775 0)
(0.102979 0.0011661 0)
(0.10335 0.00131434 0)
(0.103726 0.0017151 0)
(0.104145 0.00191786 0)
(0.104541 0.00242938 0)
(0.105049 0.00269864 0)
(0.105561 0.00328132 0)
(0.106102 0.00366528 0)
(0.106703 0.00435311 0)
(0.107419 0.00485162 0)
(0.108165 0.00565842 0)
(0.108985 0.00625893 0)
(0.109887 0.00716779 0)
(0.110928 0.00785867 0)
(0.112049 0.00889467 0)
(0.113291 0.00970836 0)
(0.0999995 -3.49317e-05 0)
(0.100056 -0.00011197 0)
(0.100158 -0.000172083 0)
(0.100265 -0.000207156 0)
(0.100468 -0.000219744 0)
(0.100645 -0.000222807 0)
(0.100892 -0.000160745 0)
(0.101129 -0.000143922 0)
(0.101364 -1.51471e-05 0)
(0.101678 3.46107e-05 0)
(0.101946 0.000173468 0)
(0.102222 0.000274665 0)
(0.102592 0.000463575 0)
(0.102905 0.000597232 0)
(0.103262 0.000844521 0)
(0.103658 0.00101359 0)
(0.104081 0.00134192 0)
(0.104522 0.00156321 0)
(0.104975 0.00197794 0)
(0.105506 0.00227862 0)
(0.106088 0.00274795 0)
(0.106651 0.00313468 0)
(0.107318 0.00370418 0)
(0.108076 0.00419249 0)
(0.10888 0.00486591 0)
(0.109731 0.005429 0)
(0.110696 0.00618349 0)
(0.111767 0.00682585 0)
(0.112939 0.00766469 0)
(0.114194 0.0084 0)
(0.100002 -7.80508e-05 0)
(0.100064 -0.000205682 0)
(0.100195 -0.000338632 0)
(0.100335 -0.000408822 0)
(0.100564 -0.000466189 0)
(0.100774 -0.000481248 0)
(0.101043 -0.000457735 0)
(0.1013 -0.000441398 0)
(0.101558 -0.00035774 0)
(0.101875 -0.00030355 0)
(0.102174 -0.000213774 0)
(0.102456 -0.000112534 0)
(0.102855 2.99974e-05 0)
(0.103186 0.000163145 0)
(0.103573 0.000363736 0)
(0.103993 0.000530279 0)
(0.104455 0.000802451 0)
(0.104912 0.00102302 0)
(0.10542 0.00136241 0)
(0.105969 0.00166805 0)
(0.106605 0.00205227 0)
(0.107197 0.00241745 0)
(0.107915 0.00289813 0)
(0.108704 0.00335253 0)
(0.10956 0.00391519 0)
(0.110433 0.00442827 0)
(0.11145 0.00505531 0)
(0.112539 0.00563506 0)
(0.11375 0.00632118 0)
(0.11501 0.00696279 0)
(0.100006 -0.00011264 0)
(0.100073 -0.000280404 0)
(0.100241 -0.000454847 0)
(0.100422 -0.000537205 0)
(0.100689 -0.000608258 0)
(0.100933 -0.000625661 0)
(0.101233 -0.000621836 0)
(0.101501 -0.00060782 0)
(0.101791 -0.000560776 0)
(0.102105 -0.000504992 0)
(0.102443 -0.000453214 0)
(0.102736 -0.000355418 0)
(0.103167 -0.000242238 0)
(0.103515 -0.000115375 0)
(0.103943 5.12138e-05 0)
(0.104377 0.000211416 0)
(0.104888 0.000428437 0)
(0.105348 0.000642776 0)
(0.105914 0.000913614 0)
(0.106472 0.00120568 0)
(0.107161 0.00151443 0)
(0.107773 0.00184085 0)
(0.108545 0.00224039 0)
(0.109339 0.00265113 0)
(0.110248 0.00310974 0)
(0.111123 0.00356503 0)
(0.112206 0.00407108 0)
(0.113289 0.00457767 0)
(0.114548 0.00512138 0)
(0.115772 0.00567128 0)
(0.100012 -0.000206939 0)
(0.100108 -0.000526871 0)
(0.100346 -0.000793227 0)
(0.100578 -0.000917473 0)
(0.100897 -0.00100389 0)
(0.10116 -0.00103168 0)
(0.101498 -0.00104492 0)
(0.101758 -0.00104183 0)
(0.102092 -0.00102245 0)
(0.102393 -0.000976047 0)
(0.102778 -0.000946331 0)
(0.103071 -0.000857912 0)
(0.103542 -0.000762171 0)
(0.103885 -0.000656897 0)
(0.104363 -0.000522627 0)
(0.104783 -0.000382911 0)
(0.10535 -0.00021723 0)
(0.105789 -2.55476e-05 0)
(0.106423 0.000185751 0)
(0.10696 0.000441784 0)
(0.107713 0.000690087 0)
(0.108318 0.000974775 0)
(0.109168 0.00131136 0)
(0.109924 0.00166768 0)
(0.11091 0.00203412 0)
(0.111749 0.00243048 0)
(0.112921 0.00284326 0)
(0.113953 0.00327589 0)
(0.115301 0.00371243 0)
(0.116466 0.00416078 0)
(0.10001 -0.000235036 0)
(0.100211 -0.000592316 0)
(0.100585 -0.000846335 0)
(0.100929 -0.000961921 0)
(0.10131 -0.0010434 0)
(0.101601 -0.00108579 0)
(0.101948 -0.00111782 0)
(0.1022 -0.00113741 0)
(0.102548 -0.00114684 0)
(0.102837 -0.00111987 0)
(0.103228 -0.00111383 0)
(0.103515 -0.00104771 0)
(0.103965 -0.000979 0)
(0.104292 -0.000907187 0)
(0.104761 -0.000806592 0)
(0.105152 -0.000693086 0)
(0.105702 -0.000575161 0)
(0.106112 -0.000403834 0)
(0.106743 -0.000233593 0)
(0.107251 -1.94834e-05 0)
(0.108007 0.000171198 0)
(0.108584 0.000411798 0)
(0.109448 0.000697704 0)
(0.11015 0.00099827 0)
(0.11117 0.0012768 0)
(0.111983 0.00159459 0)
(0.113208 0.00191171 0)
(0.114193 0.00225726 0)
(0.115593 0.0026061 0)
(0.116698 0.00297435 0)
(0.099985 -0.000692386 0)
(0.100338 -0.00135634 0)
(0.100718 -0.00157252 0)
(0.101094 -0.00161569 0)
(0.101331 -0.00166695 0)
(0.101553 -0.00171949 0)
(0.101669 -0.00175731 0)
(0.101808 -0.00176911 0)
(0.101895 -0.00176755 0)
(0.102036 -0.00173671 0)
(0.102098 -0.00171548 0)
(0.102216 -0.00164615 0)
(0.102303 -0.00158793 0)
(0.102447 -0.0015313 0)
(0.102527 -0.001453 0)
(0.102713 -0.00135163 0)
(0.102855 -0.00125655 0)
(0.1031 -0.00111653 0)
(0.103332 -0.000990606 0)
(0.103666 -0.000836039 0)
(0.104009 -0.000691012 0)
(0.104465 -0.000495546 0)
(0.104979 -0.000288688 0)
(0.105589 -7.28562e-05 0)
(0.106282 0.000114876 0)
(0.107067 0.000345278 0)
(0.108002 0.000576079 0)
(0.109016 0.000832713 0)
(0.11021 0.00107906 0)
(0.111445 0.00133056 0)
(0.0990151 -0.000603125 0)
(0.098463 -0.001144 0)
(0.0974212 -0.00127652 0)
(0.0960213 -0.0012808 0)
(0.0943729 -0.00130248 0)
(0.0927833 -0.00131883 0)
(0.0911486 -0.00132551 0)
(0.0896116 -0.00132303 0)
(0.0880176 -0.00129809 0)
(0.0865431 -0.0012545 0)
(0.0849948 -0.00121003 0)
(0.0835949 -0.00116307 0)
(0.0821402 -0.0011237 0)
(0.080849 -0.00106731 0)
(0.079497 -0.000999859 0)
(0.0783753 -0.00094929 0)
(0.0771587 -0.000900928 0)
(0.0762056 -0.000819166 0)
(0.0751795 -0.00072889 0)
(0.074475 -0.000654343 0)
(0.0736488 -0.000589038 0)
(0.0731937 -0.000505661 0)
(0.0726243 -0.000395616 0)
(0.0725066 -0.000281698 0)
(0.0722393 -0.000172933 0)
(0.0724574 -7.76843e-05 0)
(0.0724896 1.74742e-05 0)
(0.0730613 0.000115942 0)
(0.0734214 0.000234902 0)
(0.0743897 0.000334377 0)
(0.00959165 -0.000896439 0)
(0.0375441 0.0125117 0)
(0.0280595 0.0102305 0)
(0.0600725 0.0234418 8.21624e-22)
(0.0428531 0.0190218 6.52707e-22)
(0.0793804 0.0329247 0)
(0.0559644 0.026092 2.45018e-22)
(0.0990742 0.039916 2.56337e-23)
(0.0721715 0.0336393 7.00308e-22)
(0.123524 0.0433695 0)
(0.0667118 0.0128676 0)
(0.0701623 0.0197036 0)
(0.0786541 0.022204 0)
(0.0868685 0.0322627 0)
(0.0897174 0.0308919 0)
(0.100768 0.0408953 1.68038e-22)
(0.101157 0.0379547 3.98945e-23)
(0.118109 0.049243 -8.61053e-23)
(0.117404 0.0450329 -5.26078e-22)
(0.138988 0.0511985 -4.79762e-22)
(0.0877178 0.0198374 0)
(0.0900717 0.0231208 0)
(0.0947143 0.0277681 0)
(0.098468 0.0296301 0)
(0.103806 0.0370406 0)
(0.1101 0.0365865 -1.68037e-22)
(0.112973 0.0401541 -3.98944e-23)
(0.122508 0.0377564 8.61044e-23)
(0.127387 0.0440887 2.73853e-22)
(0.14145 0.0396604 4.79772e-22)
(0.096277 0.0198169 -3.5782e-22)
(0.0985078 0.0250601 0)
(0.102134 0.0270789 -2.86974e-22)
(0.104601 0.0295007 -2.39306e-22)
(0.108666 0.0321858 -1.67047e-22)
(0.114772 0.0356144 0)
(0.118733 0.0388243 0)
(0.125108 0.0367478 1.35911e-22)
(0.129435 0.0386261 2.7187e-22)
(0.140083 0.0367424 4.2119e-22)
(0.100346 0.0212076 3.57821e-22)
(0.102552 0.0223079 0)
(0.105708 0.0272561 2.86974e-22)
(0.108641 0.0276211 2.39307e-22)
(0.11171 0.0318812 1.67048e-22)
(0.116611 0.030991 0)
(0.120949 0.0356689 0)
(0.127455 0.0325493 -1.35912e-22)
(0.131286 0.0348652 -2.71872e-22)
(0.138651 0.0305894 -4.21193e-22)
(0.103534 0.0199467 0)
(0.10512 0.0220092 -2.59987e-22)
(0.107935 0.0250881 0)
(0.11109 0.0257995 -1.67075e-22)
(0.114328 0.0284521 0)
(0.118581 0.0286132 0)
(0.122813 0.0324534 0)
(0.128139 0.0302624 -1.54259e-22)
(0.1325 0.0310558 0)
(0.13803 0.0281814 0)
(0.105511 0.0195676 2.55404e-22)
(0.107508 0.0200978 4.89108e-22)
(0.110122 0.0234586 1.87907e-22)
(0.113359 0.023761 1.67075e-22)
(0.116161 0.0267953 0)
(0.120003 0.025798 -1.39997e-23)
(0.12392 0.0287802 0)
(0.129149 0.0272353 1.5426e-22)
(0.133122 0.0277265 0)
(0.137635 0.0248417 0)
(0.107604 0.0180654 -2.55405e-22)
(0.109552 0.0189578 -2.29121e-22)
(0.111907 0.021524 -1.87908e-22)
(0.11495 0.0217692 0)
(0.117904 0.0239725 0)
(0.121537 0.0235727 1.39997e-23)
(0.12504 0.0256368 0)
(0.12962 0.0246161 0)
(0.133529 0.0247843 0)
(0.137344 0.0223551 0)
(0.109341 0.0169013 0)
(0.111261 0.0173717 -1.78884e-22)
(0.113592 0.0196195 0)
(0.11653 0.0197594 -9.64336e-23)
(0.119238 0.0217769 0)
(0.122593 0.0212831 0)
(0.125956 0.0227092 8.23383e-23)
(0.130025 0.0218579 1.61001e-22)
(0.133704 0.0220642 0)
(0.137234 0.0198559 3.30552e-22)
(0.11091 0.0153794 0)
(0.112797 0.0158792 1.78884e-22)
(0.115025 0.017728 0)
(0.117737 0.0178684 9.64338e-23)
(0.120412 0.0193392 0)
(0.123559 0.0190416 0)
(0.126694 0.0201395 -8.23385e-23)
(0.130335 0.0194096 -1.61001e-22)
(0.133808 0.0194564 0)
(0.137033 0.0175315 -3.30553e-22)
(0.112307 0.0139083 8.33151e-23)
(0.114117 0.0143074 0)
(0.116266 0.0158192 0)
(0.11886 0.0159278 3.32273e-23)
(0.121415 0.0171753 0)
(0.1243 0.0168976 0)
(0.127266 0.0176774 0)
(0.130625 0.0169633 -8.02761e-23)
(0.133848 0.0170676 0)
(0.136803 0.0154415 0)
(0.113508 0.0123697 -7.65461e-24)
(0.115273 0.0127485 0)
(0.11735 0.014 4.7111e-23)
(0.119776 0.0140964 -5.70427e-24)
(0.122221 0.0150417 0)
(0.124949 0.0148251 0)
(0.127758 0.0154619 -4.77787e-23)
(0.130822 0.0147804 8.02762e-23)
(0.133767 0.0147945 -1.13224e-22)
(0.136584 0.0133906 -1.48091e-22)
(0.114586 0.0108003 -6.53287e-24)
(0.116301 0.0111349 0)
(0.118296 0.0121479 -5.62378e-24)
(0.120605 0.0122449 -4.71662e-24)
(0.122946 0.0130172 1.86093e-24)
(0.125501 0.0127928 2.19271e-23)
(0.128146 0.0132608 -1.00013e-24)
(0.131 0.0126631 -7.86407e-23)
(0.133748 0.0126508 2.96791e-24)
(0.136386 0.011448 4.87262e-24)
(0.115523 0.00928857 -6.91279e-23)
(0.117196 0.00959916 0)
(0.119116 0.0104364 -4.14873e-23)
(0.121303 0.0105184 -2.28065e-23)
(0.123548 0.0111181 -1.86093e-24)
(0.125981 0.0109362 -4.58399e-23)
(0.128473 0.0112962 4.8779e-23)
(0.131123 0.0107391 7.86408e-23)
(0.133696 0.0106788 1.10257e-22)
(0.136191 0.0096675 1.43219e-22)
(0.116391 0.00768589 0)
(0.118022 0.00796355 0)
(0.119881 0.00863765 0)
(0.121962 0.0087231 0)
(0.124115 0.00919707 0)
(0.126418 0.0090297 2.39128e-23)
(0.128797 0.00928075 0)
(0.131277 0.00881691 0)
(0.133691 0.00873047 0)
(0.136042 0.00787254 0)
(0.117189 0.00625549 0)
(0.118746 0.00650946 0)
(0.120574 0.00705702 0)
(0.122529 0.00713776 0)
(0.124636 0.00750005 0)
(0.126808 0.0073651 1.31995e-23)
(0.129094 0.00753681 0)
(0.131393 0.00713645 0)
(0.133699 0.00702878 0)
(0.135903 0.00632108 0)
(0.11799 0.00462002 0)
(0.119399 0.0048411 0)
(0.121252 0.00526475 1.34688e-23)
(0.122995 0.00534475 0)
(0.125106 0.00562232 -3.43321e-24)
(0.127047 0.00552513 -1.31995e-23)
(0.129313 0.00563824 0)
(0.131347 0.00532304 -3.69732e-23)
(0.133594 0.0052073 0)
(0.135535 0.004636 0)
(0.118292 0.00333106 0)
(0.119318 0.00352171 0)
(0.121227 0.00382619 -1.34689e-23)
(0.122532 0.00388889 0)
(0.124698 0.00406634 3.43323e-24)
(0.126153 0.00399607 0)
(0.128447 0.00404875 0)
(0.129934 0.00380346 3.69734e-23)
(0.132196 0.00367862 0)
(0.133561 0.00323968 0)
(0.112889 0.00154913 -5.98689e-24)
(0.113252 0.00167785 -4.5868e-24)
(0.114995 0.0018661 -2.96342e-24)
(0.115543 0.00193753 0)
(0.117581 0.0020614 1.04014e-24)
(0.118244 0.00204776 0)
(0.120465 0.00206703 6.07683e-24)
(0.121082 0.00191692 0)
(0.123299 0.00180639 1.21015e-23)
(0.12365 0.00152559 1.54459e-23)
(0.0751013 0.000401883 5.9862e-24)
(0.0752259 0.000414788 4.58623e-24)
(0.0762813 0.000418636 2.96303e-24)
(0.0765612 0.000393509 0)
(0.0778592 0.000373251 -1.03999e-24)
(0.0781483 0.000330167 0)
(0.079573 0.000280631 -6.07584e-24)
(0.0796897 0.000213562 0)
(0.0810734 0.000136165 -1.20993e-23)
(0.0807428 4.49876e-05 -1.5443e-23)
(0.0117226 -0.00740021 0)
(0.0252228 -0.00364162 0)
(0.0232359 0.00714007 0)
(0.0189247 0.0010481 0)
(0.024924 -0.00249619 0)
(0.00854471 0.0106375 0)
(-0.0449714 0.0185344 0)
(-0.0775167 0.0128089 0)
(-0.10542 0.00988109 0)
(-0.120237 0.00610332 0)
(-0.12969 0.00348436 0)
(-0.130306 0.000905988 0)
(-0.127256 -0.00095511 0)
(-0.119055 -0.00234911 0)
(-0.108355 -0.00349199 0)
(-0.09555 -0.00424531 0)
(-0.0786671 -0.00486558 0)
(-0.063178 -0.00537729 0)
(-0.0442448 -0.00568538 0)
(-0.0250239 -0.00597461 0)
(-0.00708955 -0.00506418 0)
(0.00977129 -0.00449071 0)
(0.0240044 -0.00355181 0)
(0.036031 -0.00262016 0)
(0.0455233 -0.00172187 0)
(0.0527349 -0.000913688 0)
(0.0578082 -0.000213173 0)
(0.0610226 0.000347815 0)
(0.0625937 0.000732233 0)
(0.0630019 0.000957944 0)
(0.0625858 0.0011183 0)
(0.0616331 0.00128611 0)
(0.0601208 0.00151598 0)
(0.05806 0.00173056 0)
(0.0554703 0.0018291 0)
(0.052441 0.00172479 0)
(0.0494491 0.00141915 0)
(0.0463232 0.00101182 0)
(0.0442397 0.000646837 0)
(0.0412963 0.000290964 0)
(0.0142966 -0.0202128 0)
(0.0140882 -0.00339591 0)
(0.0255276 -0.00259009 0)
(0.0224653 -0.00320833 0)
(-0.0110896 0.0119392 0)
(-0.0458776 0.0381083 0)
(-0.0795817 0.0386656 0)
(-0.0982967 0.0289206 0)
(-0.117145 0.0205523 0)
(-0.124492 0.0119432 0)
(-0.129173 0.00406187 0)
(-0.125771 -0.00251761 0)
(-0.11932 -0.00772283 0)
(-0.109372 -0.011373 0)
(-0.0955422 -0.0141114 0)
(-0.0838156 -0.017026 0)
(-0.0647177 -0.0187705 0)
(-0.0493099 -0.0198823 0)
(-0.0285289 -0.0215132 0)
(-0.0100644 -0.0211741 0)
(0.00840253 -0.0196021 0)
(0.0254366 -0.0177169 0)
(0.0400126 -0.0151248 0)
(0.0525199 -0.0125338 0)
(0.0628418 -0.00998286 0)
(0.0712733 -0.0076385 0)
(0.0780604 -0.00546182 0)
(0.0832923 -0.003602 0)
(0.0871496 -0.00204857 0)
(0.0897536 -0.000945996 0)
(0.0915892 -9.84157e-05 0)
(0.0927089 0.00046328 0)
(0.093585 0.0010505 0)
(0.0939291 0.00150058 0)
(0.0944667 0.00213812 0)
(0.0942654 0.00247901 0)
(0.0946741 0.00290279 0)
(0.0935063 0.00268882 0)
(0.0936462 0.00275915 0)
(0.091284 0.00210573 0)
(0.0102606 -0.0290896 0)
(-0.000645224 -0.0127908 0)
(0.00194704 0.00253165 0)
(-0.00460465 0.0253296 0)
(-0.0321696 0.0447937 0)
(-0.0538984 0.0599011 0)
(-0.0741974 0.053301 0)
(-0.0827938 0.0399802 0)
(-0.0957672 0.0288967 0)
(-0.0987349 0.016359 0)
(-0.100657 0.00455406 0)
(-0.0955305 -0.00593297 0)
(-0.0869837 -0.0133111 0)
(-0.0774782 -0.0194661 0)
(-0.0640664 -0.0226919 0)
(-0.051692 -0.0261503 0)
(-0.0371043 -0.0298544 0)
(-0.0207747 -0.0322391 0)
(-0.00387652 -0.0338431 0)
(0.0128599 -0.0333604 0)
(0.0287044 -0.031139 0)
(0.0432094 -0.0276837 0)
(0.0553581 -0.0234569 0)
(0.0654696 -0.0193195 0)
(0.0735441 -0.0154335 0)
(0.0800199 -0.0120192 0)
(0.0852548 -0.00892284 0)
(0.089612 -0.0062437 0)
(0.0929881 -0.00395902 0)
(0.0955088 -0.00228584 0)
(0.0973854 -0.0010369 0)
(0.0988649 -0.00024797 0)
(0.100314 0.000553095 0)
(0.101364 0.00097663 0)
(0.102818 0.00164721 0)
(0.103547 0.00172254 0)
(0.10505 0.00218063 0)
(0.1057 0.00202808 0)
(0.106848 0.00230306 0)
(0.107472 0.00226192 0)
(0.00253286 -0.0241213 0)
(-0.00469025 0.00498083 0)
(-0.00839156 0.000103727 0)
(-0.0181772 0.0256234 0)
(-0.0354755 0.0480941 0)
(-0.0502403 0.0659607 0)
(-0.0558644 0.0585231 0)
(-0.0607756 0.0450605 0)
(-0.0677494 0.0325805 0)
(-0.0697402 0.0176025 0)
(-0.0684891 0.00250979 0)
(-0.0635435 -0.0117462 0)
(-0.0541377 -0.0210067 0)
(-0.0436805 -0.0278533 0)
(-0.0321963 -0.0325584 0)
(-0.0198413 -0.036273 0)
(-0.00640245 -0.0407975 0)
(0.00725722 -0.0438267 0)
(0.0222925 -0.0455205 0)
(0.03629 -0.0448173 0)
(0.0489318 -0.0416666 0)
(0.0603407 -0.0368447 0)
(0.0699212 -0.0310719 0)
(0.0777365 -0.0254293 0)
(0.0838441 -0.0202275 0)
(0.0885098 -0.0157986 0)
(0.0918951 -0.0120755 0)
(0.094721 -0.00891943 0)
(0.0970681 -0.00612132 0)
(0.0989026 -0.00398584 0)
(0.100163 -0.00240687 0)
(0.101025 -0.00161178 0)
(0.102185 -0.000703992 0)
(0.103276 -0.000269406 0)
(0.104762 0.000590363 0)
(0.105891 0.000810448 0)
(0.106756 0.00120511 0)
(0.107928 0.00130408 0)
(0.108138 0.00129004 0)
(0.109776 0.00161652 0)
(-0.00765769 -0.0322951 0)
(-0.0218042 -0.00551216 0)
(-0.0282187 0.0110776 0)
(-0.0216643 0.0409856 0)
(-0.0259318 0.0637515 0)
(-0.0269711 0.0772331 0)
(-0.0267812 0.0637601 0)
(-0.0295865 0.048595 0)
(-0.0317526 0.0348509 0)
(-0.0331414 0.0181414 0)
(-0.0301507 0.000329585 0)
(-0.025415 -0.0165608 0)
(-0.0172125 -0.0282747 0)
(-0.00771887 -0.0356903 0)
(0.00234381 -0.040421 0)
(0.013402 -0.0447322 0)
(0.0249792 -0.0492768 0)
(0.03686 -0.0527875 0)
(0.0487839 -0.0545831 0)
(0.0597586 -0.0530339 0)
(0.0685692 -0.0486843 0)
(0.0753759 -0.0428785 0)
(0.0809587 -0.036081 0)
(0.0856152 -0.0293635 0)
(0.0894255 -0.0232014 0)
(0.0926627 -0.0178143 0)
(0.0950091 -0.0133929 0)
(0.0967037 -0.00996825 0)
(0.0981322 -0.00703655 0)
(0.0996524 -0.00461673 0)
(0.100743 -0.00265903 0)
(0.101528 -0.00179364 0)
(0.101856 -0.00113193 0)
(0.102913 -0.000932396 0)
(0.10374 -0.00025274 0)
(0.105735 0.000316071 0)
(0.106184 0.000784685 0)
(0.107667 0.00114816 0)
(0.107273 0.00105456 0)
(0.10804 0.00114534 0)
(-0.0191037 0.000862038 0)
(-0.028886 0.0244545 0)
(-0.0176437 -0.00054525 0)
(-0.0100499 0.032395 0)
(-0.00742073 0.0506217 0)
(-0.00374366 0.0671555 0)
(0.00346732 0.05861 0)
(0.0049655 0.0480949 0)
(0.00802642 0.0355117 0)
(0.00973523 0.0180884 0)
(0.0148139 -0.0020527 0)
(0.0194209 -0.0204704 0)
(0.0246441 -0.0337794 0)
(0.030229 -0.0420494 0)
(0.0370059 -0.0476324 0)
(0.0455935 -0.05231 0)
(0.0550971 -0.0571105 0)
(0.0649974 -0.0606761 0)
(0.0737577 -0.0619465 0)
(0.0807142 -0.0594523 0)
(0.0861952 -0.0529496 0)
(0.0891585 -0.045451 0)
(0.0903407 -0.0381566 0)
(0.0913374 -0.0312591 0)
(0.0922781 -0.025073 0)
(0.0935621 -0.0195941 0)
(0.0950462 -0.0147866 0)
(0.0964221 -0.0109759 0)
(0.097284 -0.00811262 0)
(0.0986886 -0.00577428 0)
(0.0997763 -0.00368034 0)
(0.101482 -0.00232375 0)
(0.101517 -0.00163204 0)
(0.102708 -0.00156246 0)
(0.102387 -0.00138727 0)
(0.104396 -0.00090599 0)
(0.104896 -0.000141393 0)
(0.106429 0.000521799 0)
(0.10667 0.00100212 0)
(0.106363 0.0010228 0)
(-0.0618245 -0.00209574 0)
(0.00663157 -0.00802137 0)
(-0.0426246 -0.0066688 0)
(0.00420862 0.028955 0)
(0.0192816 0.057953 0)
(0.0335198 0.0709955 0)
(0.0437022 0.0601885 0)
(0.0455362 0.0464143 0)
(0.0505188 0.0311816 0)
(0.0552033 0.0132313 0)
(0.0607261 -0.00634402 0)
(0.0642692 -0.0236257 0)
(0.0661702 -0.0359965 0)
(0.0680483 -0.0447538 0)
(0.0713742 -0.0514554 0)
(0.0772527 -0.0571757 0)
(0.0844206 -0.06249 0)
(0.0905896 -0.0659142 0)
(0.0951546 -0.065886 0)
(0.0971295 -0.0623332 0)
(0.0979378 -0.054999 0)
(0.0981205 -0.0458033 0)
(0.0967765 -0.0373921 0)
(0.0952925 -0.0303643 0)
(0.0943562 -0.0244649 0)
(0.0940604 -0.019553 0)
(0.0943568 -0.0152871 0)
(0.0954593 -0.0114427 0)
(0.0962137 -0.00856925 0)
(0.0977529 -0.00634573 0)
(0.0986899 -0.00466417 0)
(0.101214 -0.00307212 0)
(0.101842 -0.00205393 0)
(0.103541 -0.00162354 0)
(0.102973 -0.00150827 0)
(0.103913 -0.00151565 0)
(0.104195 -0.000655058 0)
(0.105075 -0.000132998 0)
(0.106047 0.00109722 0)
(0.105944 0.00135813 0)
(0.104895 0.0371746 0)
(0.0827545 0.0187575 0)
(0.0427101 0.00293203 0)
(0.0213651 -0.00736042 0)
(0.0318947 0.0238652 0)
(0.0554542 0.0490879 0)
(0.0759854 0.0510452 0)
(0.0857365 0.0437063 0)
(0.0938218 0.0303959 0)
(0.099102 0.0130897 0)
(0.102911 -0.00602164 0)
(0.104197 -0.0225347 0)
(0.102942 -0.0351044 0)
(0.102494 -0.0448882 0)
(0.103753 -0.0536459 0)
(0.1073 -0.060922 0)
(0.112143 -0.065597 0)
(0.114328 -0.06783 0)
(0.112582 -0.0669009 0)
(0.109179 -0.0616267 0)
(0.105221 -0.0534125 0)
(0.102074 -0.0443531 0)
(0.0996352 -0.03605 0)
(0.0976706 -0.0293511 0)
(0.0964596 -0.0238893 0)
(0.0961174 -0.0192329 0)
(0.0962462 -0.0154855 0)
(0.0970793 -0.0120679 0)
(0.0976746 -0.00960794 0)
(0.0989074 -0.00745863 0)
(0.0997074 -0.00610864 0)
(0.101843 -0.00455958 0)
(0.103224 -0.00323547 0)
(0.104963 -0.00235375 0)
(0.105293 -0.00156054 0)
(0.105461 -0.00175793 0)
(0.10521 -0.000924106 0)
(0.105447 -0.000800757 0)
(0.105603 0.000360825 0)
(0.106466 0.00109079 0)
(0.135955 0.0423159 0)
(0.134049 0.0330065 0)
(0.121073 0.0317725 0)
(0.109501 0.034203 0)
(0.0847389 0.0335439 0)
(0.0845004 0.0382672 0)
(0.0974681 0.0376555 0)
(0.107403 0.0320003 0)
(0.116853 0.0209772 0)
(0.123699 0.00683552 0)
(0.128279 -0.00898334 0)
(0.129826 -0.024033 0)
(0.129709 -0.0363292 0)
(0.130271 -0.0467262 0)
(0.132013 -0.0557127 0)
(0.133611 -0.0632181 0)
(0.133724 -0.0673438 0)
(0.131793 -0.0662588 0)
(0.125261 -0.0624296 0)
(0.116349 -0.0571285 0)
(0.109144 -0.0494387 0)
(0.104232 -0.040963 0)
(0.101333 -0.0335724 0)
(0.100005 -0.0277976 0)
(0.0995441 -0.0233427 0)
(0.0994443 -0.0195016 0)
(0.0998887 -0.0160999 0)
(0.100995 -0.0125102 0)
(0.102218 -0.00986476 0)