/*--------------------------------*- C++ -*----------------------------------*\
| =========                 |                                                 |
| \\      /  F ield         | OpenFOAM: The Open Source CFD Toolbox           |
|  \\    /   O peration     | Version:  2112                                  |
|   \\  /    A nd           | Website:  www.openfoam.com                      |
|    \\/     M anipulation  |                                                 |
\*---------------------------------------------------------------------------*/
FoamFile
{
    version     2.0;
    format      ascii;
    arch        "LSB;label=32;scalar=64";
    class       volScalarField;
    location    "0.48";
    object      nut;
}
// * * * * * * * * * * * * * * * * * * * * * * * * * * * * * * * * * * * * * //

dimensions      [0 2 -1 0 0 0 0];

internalField   nonuniform List<scalar> 
1880
(
3.40248e-11
3.75586e-12
5.10899e-13
2.4503e-14
4.16119e-14
4.67551e-14
2.36801e-14
4.35549e-15
1.35444e-14
7.41251e-15
2.13073e-14
2.92919e-15
1.72232e-15
6.3944e-14
3.8139e-14
5.18803e-14
5.56643e-14
9.88803e-14
3.16215e-13
5.0877e-13
7.26833e-13
1.81124e-12
6.58102e-12
1.39267e-11
1.85248e-11
7.34674e-11
1.00279e-10
3.09044e-10
8.97347e-11
1.27166e-09
7.03689e-09
5.8979e-09
1.39181e-09
1.08302e-10
1.3051e-10
4.2749e-12
6.24436e-11
8.36255e-12
5.83118e-11
1.08414e-11
3.6689e-11
4.08132e-11
4.46461e-11
3.8483e-11
5.13334e-11
3.7964e-12
3.65296e-11
3.28454e-11
1.13756e-11
1.23615e-10
1.56347e-10
8.96991e-11
6.00671e-10
2.1588e-10
5.07785e-10
9.02136e-10
9.80028e-10
1.47657e-09
1.3819e-09
9.94973e-10
1.32298e-09
4.87864e-09
1.0908e-10
9.86489e-10
6.48028e-10
3.88199e-10
7.91445e-10
5.22896e-09
2.51622e-09
5.98315e-09
3.98871e-09
6.67716e-09
1.65458e-09
6.79176e-09
6.45716e-10
4.0771e-10
4.59921e-09
1.34176e-10
1.32149e-09
5.41188e-09
1.77248e-10
4.55926e-09
6.27812e-09
2.27894e-09
7.55879e-09
8.38946e-09
5.90727e-09
7.55704e-09
1.39402e-08
6.83469e-09
3.82485e-09
1.01904e-09
1.43338e-08
4.76055e-10
6.55358e-09
1.82776e-10
2.97146e-09
9.23875e-10
1.05371e-08
2.21659e-09
1.99832e-08
1.33607e-09
5.86008e-10
2.89025e-10
1.71051e-08
3.39029e-09
3.4973e-08
2.96192e-09
1.14478e-09
8.72941e-09
3.35286e-09
9.83763e-09
5.40791e-09
9.3817e-09
1.16644e-08
1.46758e-08
1.74398e-08
1.72409e-08
2.32873e-08
2.0538e-08
9.29597e-09
2.5449e-09
3.50833e-10
2.6937e-09
2.9082e-10
2.51125e-09
7.0302e-10
4.28715e-09
1.22335e-08
4.3846e-09
2.27834e-08
2.68788e-09
1.88945e-10
1.75086e-09
1.71019e-08
2.53381e-09
3.38254e-08
3.01573e-09
1.90098e-08
7.1989e-09
9.94097e-09
9.0452e-09
5.15484e-10
1.0335e-08
4.25774e-09
1.51493e-08
8.91901e-09
1.89693e-08
1.89908e-08
2.60353e-08
4.53853e-10
5.93445e-10
1.12715e-09
5.36154e-10
3.66331e-11
7.04591e-11
6.39383e-10
7.16629e-10
2.08697e-13
1.92568e-09
5.38665e-09
2.51189e-09
5.16721e-10
1.65378e-09
8.42112e-10
5.38576e-09
1.06046e-09
5.32345e-09
1.22483e-09
5.7921e-09
1.84331e-09
7.3616e-09
4.65877e-09
1.00677e-08
9.20985e-09
1.29035e-08
1.30383e-08
1.6136e-08
1.86589e-08
2.0489e-08
1.90815e-12
2.84728e-10
1.56006e-10
3.16381e-10
7.10667e-10
1.04731e-10
1.42957e-09
2.29421e-10
1.14104e-09
7.50383e-10
1.62105e-09
1.09357e-09
1.97262e-09
6.56103e-10
2.08245e-09
1.72656e-09
2.2062e-09
2.88846e-09
2.58761e-09
4.90192e-09
3.90994e-09
6.3588e-09
6.86558e-09
8.06134e-09
9.5032e-09
1.13407e-08
1.27549e-08
1.46591e-08
1.68989e-08
2.01028e-08
5.56859e-11
2.06939e-11
3.86257e-10
5.38043e-10
1.82679e-09
5.63707e-10
2.41407e-09
1.88123e-09
2.06747e-09
2.18157e-09
2.61244e-09
2.33821e-09
2.74153e-09
1.65272e-09
3.14974e-09
3.00136e-09
3.752e-09
3.26178e-09
4.13442e-09
4.9107e-09
5.68573e-09
6.2988e-09
7.9399e-09
8.50961e-09
1.07253e-08
1.09152e-08
1.36819e-08
1.43507e-08
1.73043e-08
1.74927e-08
8.91438e-11
1.76694e-11
9.00011e-10
9.34071e-10
2.47163e-09
1.11825e-09
2.95929e-09
1.61829e-09
2.46621e-09
1.53482e-09
2.77884e-09
2.05243e-09
2.8495e-09
1.9704e-09
3.5013e-09
2.95224e-09
3.99794e-09
3.56446e-09
4.46454e-09
5.07661e-09
6.08373e-09
6.21467e-09
8.03965e-09
8.44023e-09
1.03734e-08
1.08273e-08
1.29301e-08
1.38393e-08
1.59813e-08
1.74093e-08
2.70412e-10
3.45027e-10
1.55306e-09
1.62325e-09
2.54339e-09
1.64131e-09
2.87448e-09
1.83655e-09
2.56611e-09
2.03485e-09
3.04143e-09
2.6381e-09
3.16871e-09
2.5694e-09
3.83842e-09
3.53248e-09
4.41618e-09
4.05371e-09
4.99718e-09
5.5323e-09
6.66677e-09
6.62333e-09
8.3241e-09
8.73222e-09
1.04872e-08
1.07112e-08
1.2764e-08
1.36143e-08
1.57992e-08
1.62328e-08
3.52113e-10
6.18829e-10
1.83341e-09
1.88755e-09
2.21966e-09
1.922e-09
2.40249e-09
1.83008e-09
2.45442e-09
2.195e-09
2.83393e-09
3.0453e-09
3.18317e-09
3.0356e-09
3.80451e-09
3.83874e-09
4.40507e-09
4.40718e-09
5.17668e-09
5.80418e-09
6.75974e-09
6.83849e-09
8.26423e-09
8.84319e-09
1.01453e-08
1.06202e-08
1.2301e-08
1.32913e-08
1.50753e-08
1.58635e-08
5.20694e-10
9.41752e-10
1.81129e-09
1.58816e-09
2.04759e-09
1.81634e-09
2.3936e-09
1.95539e-09
2.60439e-09
2.36642e-09
3.17795e-09
3.07179e-09
3.53726e-09
3.19935e-09
4.09457e-09
4.04618e-09
4.71318e-09
4.69653e-09
5.54359e-09
5.96873e-09
7.01808e-09
7.04068e-09
8.35145e-09
8.83182e-09
1.00956e-08
1.05729e-08
1.21088e-08
1.29992e-08
1.47727e-08
1.52981e-08
2.89484e-10
8.08315e-10
1.38679e-09
1.44167e-09
1.66371e-09
1.90847e-09
2.11454e-09
2.12805e-09
2.60846e-09
2.59042e-09
2.97065e-09
3.39654e-09
3.38133e-09
3.43878e-09
3.98565e-09
4.33177e-09
4.70026e-09
4.952e-09
5.6329e-09
6.22563e-09
6.8916e-09
7.21872e-09
8.28693e-09
8.92138e-09
9.83177e-09
1.04929e-08
1.1808e-08
1.27235e-08
1.41752e-08
1.4856e-08
1.01871e-10
4.1156e-10
1.37062e-09
1.24373e-09
1.76507e-09
1.89694e-09
2.22257e-09
2.30573e-09
2.7005e-09
2.68179e-09
3.25284e-09
3.34986e-09
3.63576e-09
3.65823e-09
4.2127e-09
4.47523e-09
4.97419e-09
5.18542e-09
5.9227e-09
6.26499e-09
7.07841e-09
7.39207e-09
8.41017e-09
8.93485e-09
9.8716e-09
1.04865e-08
1.17156e-08
1.25046e-08
1.38805e-08
1.45871e-08
5.29125e-12
2.50058e-10
5.56643e-10
1.06927e-09
1.44466e-09
1.90756e-09
2.03586e-09
2.19971e-09
2.53734e-09
2.60939e-09
2.89323e-09
3.34969e-09
3.42875e-09
3.63508e-09
4.12501e-09
4.56375e-09
4.86313e-09
5.23036e-09
5.86449e-09
6.36397e-09
6.82758e-09
7.42619e-09
8.36837e-09
8.90408e-09
9.6026e-09
1.03336e-08
1.14223e-08
1.22146e-08
1.33133e-08
1.4057e-08
8.22304e-11
7.35804e-10
1.2992e-09
1.42454e-09
1.58065e-09
1.87242e-09
1.99225e-09
2.2842e-09
2.53714e-09
2.64662e-09
3.1038e-09
3.32063e-09
3.48695e-09
3.80634e-09
4.14862e-09
4.57746e-09
4.97792e-09
5.34705e-09
5.98185e-09
6.35684e-09
6.93871e-09
7.55784e-09
8.36152e-09
8.89235e-09
9.66633e-09
1.03276e-08
1.13053e-08
1.20259e-08
1.30934e-08
1.39188e-08
9.31089e-13
1.29655e-11
1.49697e-10
7.18086e-10
1.14088e-09
1.423e-09
1.25208e-09
1.46212e-09
1.73998e-09
2.0024e-09
2.26444e-09
3.04575e-09
3.10656e-09
3.4801e-09
3.97557e-09
4.47993e-09
4.76983e-09
5.24947e-09
5.83033e-09
6.32608e-09
6.73695e-09
7.36436e-09
8.09228e-09
8.5577e-09
9.2205e-09
9.99094e-09
1.08632e-08
1.14966e-08
1.22893e-08
1.3061e-08
2.1561e-09
2.47741e-09
1.63282e-09
1.54002e-09
1.90975e-09
2.30919e-09
3.16517e-09
3.49255e-09
3.34464e-09
2.94061e-09
1.81908e-09
1.23676e-09
6.77225e-10
4.22867e-10
1.54609e-10
8.80245e-11
2.72725e-11
1.0064e-11
3.87902e-12
5.65425e-12
1.40211e-12
7.1682e-14
3.53291e-13
1.07837e-11
2.32757e-11
5.03804e-11
8.08448e-11
1.76107e-10
3.1206e-10
6.84602e-10
5.13196e-09
5.62618e-09
9.78804e-10
1.49702e-10
3.23839e-11
4.18571e-12
4.32689e-13
9.13734e-14
2.66438e-13
2.88044e-13
1.01578e-12
1.14772e-12
6.59666e-13
1.09369e-12
1.93444e-12
1.96817e-12
2.68715e-12
3.14107e-12
3.47843e-12
4.17001e-12
5.85979e-12
7.53026e-12
6.07517e-12
4.91725e-12
6.02945e-12
7.53042e-12
7.20894e-12
6.06432e-12
4.09861e-12
2.22888e-12
3.46641e-11
4.68897e-12
2.53322e-13
1.46011e-14
6.05287e-14
2.50512e-14
4.42987e-15
1.87608e-16
6.83822e-17
4.05219e-16
3.67775e-16
1.12038e-15
1.8214e-15
3.6899e-15
1.67488e-15
2.47226e-15
1.00268e-14
1.92333e-14
1.03183e-14
9.17058e-15
1.96749e-14
4.78683e-14
5.53029e-14
4.42719e-14
3.37969e-14
3.56126e-14
4.89918e-14
6.60155e-14
4.85353e-14
1.27878e-14
3.5273e-09
1.48939e-09
4.04033e-10
2.62229e-10
3.59767e-11
1.2616e-10
5.25115e-11
2.1877e-10
6.74226e-10
2.32021e-09
3.60678e-09
1.20392e-08
7.79866e-09
7.52886e-09
2.21798e-09
1.75866e-08
1.89208e-09
1.01493e-08
5.08181e-10
7.91153e-09
1.71365e-08
1.64977e-08
2.9709e-08
5.44982e-08
1.22863e-08
4.03516e-08
4.08578e-08
8.41489e-08
2.3078e-08
7.7934e-08
4.36448e-08
2.49432e-08
2.04297e-08
4.21212e-08
4.49845e-08
3.09994e-08
1.93783e-08
4.54704e-08
5.18476e-08
3.96543e-08
3.24948e-08
3.38215e-08
3.32414e-08
3.36511e-08
3.64157e-08
3.69607e-08
3.3996e-08
3.58113e-08
4.17781e-08
3.72157e-08
3.34904e-08
2.61101e-08
2.72614e-08
2.86039e-08
3.19912e-08
3.28554e-08
3.15115e-08
3.94554e-08
3.6117e-08
3.37934e-08
2.59823e-08
2.56979e-08
2.668e-08
2.5663e-08
2.78498e-08
3.13078e-08
3.19086e-08
3.2233e-08
3.1541e-08
2.95361e-08
2.71908e-08
2.24377e-08
2.46624e-08
2.53919e-08
2.68127e-08
2.87026e-08
2.9756e-08
3.11658e-08
2.76131e-08
2.67287e-08
2.30198e-08
2.13188e-08
2.34569e-08
2.35889e-08
2.45335e-08
2.66492e-08
2.73357e-08
2.7984e-08
2.54337e-08
2.43156e-08
2.23628e-08
1.98582e-08
2.18661e-08
2.26665e-08
2.34253e-08
2.44869e-08
2.52623e-08
2.57597e-08
2.34356e-08
2.21996e-08
1.98708e-08
1.87483e-08
2.08006e-08
2.14231e-08
2.16747e-08
2.28878e-08
2.37453e-08
2.37524e-08
2.16343e-08
2.07352e-08
1.88775e-08
1.78646e-08
1.95534e-08
2.0292e-08
2.07164e-08
2.1405e-08
2.19192e-08
2.19302e-08
2.05784e-08
1.93596e-08
1.72502e-08
1.70295e-08
1.85877e-08
1.92632e-08
1.94955e-08
2.0242e-08
2.06259e-08
2.04116e-08
1.91365e-08
1.79804e-08
1.66138e-08
1.64089e-08
1.7708e-08
1.83057e-08
1.86347e-08
1.90265e-08
1.92814e-08
1.90465e-08
1.81118e-08
1.6927e-08
1.54402e-08
1.573e-08
1.68609e-08
1.74393e-08
1.77089e-08
1.81529e-08
1.81301e-08
1.7817e-08
1.69652e-08
1.58734e-08
1.51912e-08
1.5322e-08
1.62621e-08
1.66803e-08
1.69749e-08
1.72014e-08
1.71633e-08
1.68494e-08
1.62175e-08
1.52411e-08
1.40545e-08
1.4345e-08
1.54132e-08
1.55967e-08
1.60974e-08
1.57971e-08
1.59269e-08
1.48354e-08
1.46008e-08
1.26105e-08
1.16206e-09
8.49331e-10
1.48129e-09
1.18033e-09
1.60795e-09
1.2664e-09
1.63096e-09
1.27023e-09
1.46709e-09
1.0154e-09
1.47938e-12
1.19938e-12
2.13684e-13
3.53169e-13
3.1899e-14
9.19466e-13
1.23936e-12
3.52565e-12
4.45453e-12
5.27255e-12
1.95516e-14
3.62653e-18
5.52893e-16
1.22272e-15
1.64255e-16
3.01649e-15
1.25977e-15
9.25293e-15
6.6114e-15
6.37378e-15
4.11955e-08
4.49277e-08
9.84234e-10
5.9528e-08
7.74617e-08
8.77191e-08
3.79578e-08
9.63083e-09
1.36819e-09
3.88768e-10
1.0989e-10
6.63511e-11
4.84649e-11
5.45761e-11
1.08642e-10
2.46989e-10
8.61442e-10
2.4582e-09
1.55568e-08
7.17618e-08
1.06724e-07
2.55596e-08
3.68639e-09
6.31945e-10
1.3518e-10
3.3946e-11
9.05391e-12
2.0095e-12
3.91941e-13
1.35447e-13
1.74109e-13
3.25575e-13
3.10922e-13
7.93956e-14
1.30394e-15
2.00394e-13
6.26782e-13
6.72087e-13
4.66691e-13
2.16864e-13
7.0453e-08
1.92328e-07
3.80504e-10
2.59984e-08
4.70892e-09
3.2782e-08
1.61496e-07
1.09577e-07
9.24688e-09
3.14548e-07
5.10969e-07
4.43356e-08
5.28587e-10
1.24834e-09
3.09315e-09
7.88652e-09
2.54052e-08
3.36469e-08
4.62421e-08
5.74062e-08
6.09826e-08
5.63904e-08
4.8641e-08
3.87828e-08
2.83507e-08
1.83914e-08
9.66923e-09
3.94985e-09
1.24508e-09
3.70532e-10
1.28904e-10
7.54242e-11
5.40275e-11
4.65114e-11
2.07468e-11
5.02941e-12
3.90145e-13
1.35428e-12
4.27186e-12
4.45182e-12
4.70399e-08
8.16708e-07
1.49111e-06
3.24391e-08
3.62784e-08
1.31134e-07
4.25777e-10
2.24785e-07
4.63607e-07
7.55218e-07
4.54443e-07
8.74475e-08
9.88768e-09
3.50084e-10
4.14774e-11
5.24895e-11
1.70143e-09
7.458e-09
1.79446e-08
3.30892e-08
4.54112e-08
4.918e-08
4.73749e-08
4.29082e-08
3.81991e-08
3.43992e-08
2.99715e-08
2.29164e-08
1.49845e-08
8.73715e-09
5.20668e-09
3.55197e-09
1.88157e-09
1.26159e-09
4.46975e-10
3.04365e-10
9.55607e-11
1.65388e-11
9.02714e-12
1.49448e-12
9.30959e-08
4.79133e-07
4.73128e-07
8.12868e-09
1.0441e-07
4.06337e-08
5.72644e-07
7.96498e-07
8.18964e-07
1.05322e-06
7.50968e-07
2.02394e-07
1.65756e-08
1.71655e-09
5.28038e-11
3.5037e-12
3.8199e-11
2.29445e-09
9.67974e-09
2.47497e-08
4.45506e-08
5.55069e-08
5.52523e-08
5.0011e-08
4.261e-08
3.58993e-08
3.16556e-08
2.69186e-08
2.0514e-08
1.41736e-08
1.00316e-08
1.052e-08
1.0431e-08
1.03912e-08
8.27738e-09
4.14098e-09
6.51721e-09
3.74324e-09
4.81694e-09
5.22104e-09
1.58756e-07
1.44698e-07
1.44794e-07
9.72245e-08
1.22516e-07
2.26673e-09
1.24795e-06
9.76931e-07
9.0815e-07
1.14814e-06
9.42292e-07
3.61314e-07
4.80263e-08
4.60313e-09
7.07583e-10
4.10177e-10
7.8085e-11
2.00334e-10
4.97243e-09
1.71679e-08
3.56972e-08
5.58483e-08
6.06448e-08
5.33345e-08
4.15675e-08
2.96582e-08
1.98055e-08
1.00406e-08
3.69597e-09
3.22473e-09
3.12041e-09
4.1352e-09
1.30205e-09
2.35194e-09
4.34208e-10
1.24116e-09
5.25387e-13
4.98685e-12
2.62251e-13
5.56582e-13
1.82681e-09
2.66955e-09
4.69922e-08
1.62285e-07
1.18313e-07
1.68415e-09
2.62368e-07
4.11113e-07
7.4628e-07
1.16252e-06
1.08928e-06
5.36678e-07
1.28705e-07
2.06783e-08
5.04222e-09
2.68777e-09
7.45013e-10
4.08845e-12
4.54878e-09
2.55108e-08
4.10183e-08
5.16074e-08
5.32096e-08
3.78963e-08
1.49916e-08
1.11817e-09
6.82057e-11
3.03321e-09
4.30783e-09
1.80491e-11
4.95774e-10
5.12481e-09
4.12971e-09
4.39066e-09
5.03254e-10
3.91817e-11
2.08112e-09
4.7192e-09
4.26444e-10
1.41808e-11
1.34287e-09
3.65134e-09
1.44234e-07
2.57199e-07
1.86155e-07
1.44582e-09
4.54598e-07
7.18264e-07
9.29031e-07
1.16812e-06
1.10806e-06
6.00772e-07
2.23498e-07
7.07804e-08
2.70562e-08
1.8163e-08
4.9832e-09
8.84651e-13
6.40934e-09
3.96547e-08
6.19246e-08
5.79371e-08
4.53891e-08
2.86628e-08
1.4693e-08
4.63157e-09
1.1924e-09
1.57729e-09
2.98001e-09
5.5934e-09
9.66208e-09
1.00999e-08
2.85254e-09
5.41782e-10
2.86681e-09
2.30952e-09
2.40538e-10
1.27098e-10
2.91351e-10
4.66135e-11
1.90663e-08
1.33599e-08
4.82886e-09
4.65586e-08
2.4159e-07
1.47234e-07
1.12495e-09
1.73454e-07
1.00836e-06
1.60126e-06
1.58058e-06
1.05865e-06
5.72574e-07
2.90344e-07
1.07935e-07
4.02668e-08
1.61865e-08
1.43708e-12
2.79485e-08
6.34902e-08
5.37236e-08
3.78037e-08
3.33334e-08
2.98166e-08
2.7914e-08
2.6567e-08
2.51019e-08
2.13368e-08
1.75357e-08
1.61108e-08
1.73945e-08
1.5762e-08
8.19119e-09
3.47606e-09
4.4102e-10
3.8733e-09
5.95479e-09
7.36905e-09
6.27032e-09
1.51441e-10
7.71937e-07
6.54866e-09
1.24525e-08
8.85054e-09
8.82631e-09
9.48508e-10
1.33231e-10
4.71342e-08
4.74734e-07
1.19428e-06
1.41871e-06
1.19494e-06
7.8534e-07
4.54918e-07
2.10825e-07
4.80986e-08
2.34997e-10
1.58791e-08
6.53679e-08
5.86545e-08
3.88145e-08
3.53753e-08
3.74029e-08
3.54755e-08
3.18852e-08
3.00387e-08
2.86112e-08
2.13605e-08
1.07784e-08
6.70606e-09
9.06102e-09
1.44366e-08
1.20921e-08
8.85337e-09
5.44128e-09
4.97948e-09
4.78443e-09
3.99959e-09
2.25047e-09
1.45771e-10
3.42519e-10
2.5665e-07
3.04548e-08
1.44471e-08
6.79616e-09
9.77556e-11
3.72717e-08
2.2274e-07
6.3676e-07
1.13552e-06
1.33143e-06
1.14581e-06
9.54288e-07
7.84531e-07
3.08782e-07
3.34631e-10
4.02359e-08
7.23382e-08
7.60377e-08
6.39121e-08
4.71751e-08
4.32873e-08
3.98609e-08
3.50599e-08
2.80637e-08
2.12689e-08
2.29519e-08
2.37332e-08
1.93405e-08
1.17147e-08
8.49814e-09
9.75736e-09
8.88187e-11
1.38856e-11
4.52381e-09
4.93713e-08
3.77441e-11
9.76323e-11
7.33588e-09
8.09699e-11
1.12061e-08
3.47144e-08
1.32578e-08
6.43859e-08
7.76574e-09
3.79116e-10
1.32296e-07
4.62987e-07
9.22079e-07
1.13913e-06
1.15501e-06
1.02413e-06
7.81288e-07
1.55068e-07
1.10127e-08
6.39716e-08
7.0189e-08
6.29261e-08
5.74148e-08
5.2448e-08
4.40134e-08
3.87234e-08
3.41933e-08
3.03305e-08
2.27031e-08
2.05841e-08
1.87948e-08
1.38842e-08
3.58281e-10
4.42391e-09
2.64482e-08
9.62417e-09
7.47772e-08
9.22841e-08
1.05218e-10
1.11139e-08
1.30974e-09
4.03976e-09
4.37782e-09
1.56361e-11
4.19104e-08
2.6512e-08
2.91673e-08
3.33187e-08
5.78619e-08
4.75216e-08
1.40285e-08
9.56594e-10
2.56656e-10
2.54794e-08
4.98938e-08
6.65365e-10
2.62824e-08
5.37988e-08
6.49078e-08
6.19227e-08
5.79042e-08
5.36763e-08
4.53745e-08
4.12425e-08
4.08116e-08
3.83958e-08
3.19482e-08
2.70826e-08
1.89758e-08
7.02325e-09
6.73222e-09
1.14317e-08
1.21979e-08
4.25323e-09
7.05507e-09
4.00754e-09
7.85626e-09
8.06467e-09
7.0292e-09
7.81776e-10
1.30999e-12
1.5694e-08
4.3393e-09
3.96247e-08
3.18375e-08
2.66464e-08
2.75391e-08
3.17385e-08
3.20846e-08
4.45581e-08
5.0554e-08
4.84028e-08
4.22155e-08
4.41602e-08
5.20447e-08
5.89946e-08
6.04828e-08
6.08659e-08
6.08449e-08
5.26817e-08
4.68391e-08
4.43748e-08
4.31281e-08
3.95439e-08
3.37332e-08
3.18688e-08
2.92616e-08
2.71928e-08
2.6415e-08
2.18563e-08
1.92332e-08
1.73356e-08
1.58195e-08
1.33772e-08
1.02299e-08
1.04749e-08
7.45567e-09
6.8522e-09
4.48451e-09
1.92164e-09
2.42626e-09
1.0176e-10
5.67703e-09
3.3568e-09
3.26473e-08
2.41704e-08
2.87215e-08
2.85487e-08
2.96783e-08
3.96318e-08
4.62644e-08
5.0682e-08
4.91989e-08
4.98028e-08
5.37949e-08
5.49853e-08
5.26461e-08
4.96621e-08
4.96391e-08
4.77001e-08
4.06435e-08
3.84543e-08
3.81067e-08
3.67673e-08
3.31661e-08
2.95683e-08
2.73329e-08
2.50242e-08
2.23056e-08
2.05952e-08
1.84599e-08
1.64422e-08
1.31078e-08
1.17205e-08
1.01705e-08
8.85601e-09
7.0483e-09
1.32197e-09
4.02005e-09
3.4389e-09
1.90405e-09
7.11698e-11
7.22936e-08
2.10807e-08
2.67555e-08
2.37081e-08
2.54836e-08
2.37811e-08
2.81535e-08
3.40215e-08
3.81758e-08
4.31964e-08
4.43087e-08
4.32942e-08
4.51688e-08
4.62655e-08
4.43476e-08
4.32381e-08
4.1915e-08
4.2161e-08
3.78334e-08
3.34844e-08
3.26942e-08
3.07752e-08
2.93838e-08
2.81039e-08
2.49258e-08
2.34754e-08
2.14803e-08
1.74978e-08
1.38618e-08
1.38913e-08
1.31864e-08
8.19809e-09
7.77588e-09
6.25995e-09
5.96922e-09
3.62757e-09
1.14061e-11
2.13074e-10
6.8195e-10
3.13306e-10
6.86037e-12
2.57162e-09
2.52926e-08
2.37051e-08
2.293e-08
2.26283e-08
2.74664e-08
3.16854e-08
3.22443e-08
3.45644e-08
3.59768e-08
3.48844e-08
3.73955e-08
3.83545e-08
3.81762e-08
3.78934e-08
3.45266e-08
3.33558e-08
3.37075e-08
3.07283e-08
2.85635e-08
2.81539e-08
2.68032e-08
2.60085e-08
2.42968e-08
2.1268e-08
2.02099e-08
1.86721e-08
1.73509e-08
1.45095e-08
1.42276e-08
1.16271e-08
9.40566e-09
8.43919e-09
6.94686e-09
8.2667e-09
5.55084e-09
3.76845e-09
3.74223e-09
1.78381e-10
4.59114e-10
2.78454e-09
2.31861e-08
2.20925e-08
2.08158e-08
2.17756e-08
2.51022e-08
2.87358e-08
2.95586e-08
2.92577e-08
2.9525e-08
2.95232e-08
3.14843e-08
3.21424e-08
3.30561e-08
3.28717e-08
3.09708e-08
2.7649e-08
2.82347e-08
2.83336e-08
2.54862e-08
2.49823e-08
2.52833e-08
2.36277e-08
2.24968e-08
2.11195e-08
1.91338e-08
1.75073e-08
1.69612e-08
1.46829e-08
1.2548e-08
1.11941e-08
1.03347e-08
9.19663e-09
6.77743e-09
4.96855e-09
4.46245e-09
3.53564e-09
1.8099e-09
2.37645e-09
4.18981e-12
2.03499e-12
2.15237e-08
2.05077e-08
1.93426e-08
2.02447e-08
2.28305e-08
2.52183e-08
2.64552e-08
2.60793e-08
2.49562e-08
2.52047e-08
2.64802e-08
2.78603e-08
2.83742e-08
2.76878e-08
2.64997e-08
2.517e-08
2.26232e-08
2.35586e-08
2.40253e-08
2.27458e-08
2.24117e-08
2.20234e-08
2.07146e-08
1.97805e-08
1.93275e-08
1.72668e-08
1.55702e-08
1.40674e-08
1.31614e-08
1.12344e-08
9.71239e-09
8.60346e-09
6.92151e-09
5.61704e-09
4.7126e-09
3.85085e-09
3.00444e-09
3.7357e-09
3.2388e-09
1.34747e-09
1.96009e-08
1.90859e-08
1.80764e-08
1.87397e-08
2.08551e-08
2.20286e-08
2.22652e-08
2.23911e-08
2.17793e-08
2.17988e-08
2.25686e-08
2.33101e-08
2.38641e-08
2.35615e-08
2.24277e-08
2.21246e-08
2.11352e-08
1.94692e-08
2.07497e-08
2.16226e-08
2.05092e-08
2.02682e-08
2.07394e-08
1.96232e-08
1.83596e-08
1.71044e-08
1.59856e-08
1.40927e-08
1.30497e-08
1.16772e-08
9.95761e-09
8.54514e-09
7.24217e-09
7.00635e-09
5.7347e-09
4.71804e-09
3.51206e-09
2.30607e-09
3.03828e-09
2.56831e-09
1.79526e-08
1.75232e-08
1.6667e-08
1.70772e-08
1.84425e-08
1.94525e-08
1.92621e-08
1.87922e-08
1.89463e-08
1.89196e-08
1.93898e-08
2.0212e-08
1.99022e-08
1.97068e-08
1.95237e-08
1.80578e-08
1.80416e-08
1.8579e-08
1.78777e-08
1.84048e-08
1.97121e-08
1.96283e-08
1.91284e-08
1.85831e-08
1.75999e-08
1.63128e-08
1.54493e-08
1.39845e-08
1.23276e-08
1.06042e-08
9.75789e-09
8.55047e-09
7.38144e-09
5.76158e-09
4.61928e-09
4.14451e-09
3.71223e-09
3.56667e-09
3.23618e-09
2.06898e-09
1.66753e-08
1.629e-08
1.57309e-08
1.58026e-08
1.62211e-08
1.66552e-08
1.67634e-08
1.62632e-08
1.59545e-08
1.65634e-08
1.68496e-08
1.69724e-08
1.73719e-08
1.68435e-08
1.60066e-08
1.59328e-08
1.5351e-08
1.54107e-08
1.65173e-08
1.70084e-08
1.75183e-08
1.81971e-08
1.80827e-08
1.71877e-08
1.65237e-08
1.52981e-08
1.39372e-08
1.22277e-08
1.1159e-08
9.61571e-09
8.24389e-09
6.81041e-09
5.78186e-09
5.12156e-09
4.28058e-09
3.53179e-09
2.96487e-09
2.34462e-09
2.43262e-09
2.18758e-09
1.52923e-08
1.49138e-08
1.42889e-08
1.41466e-08
1.4418e-08
1.43513e-08
1.40251e-08
1.39614e-08
1.38182e-08
1.39199e-08
1.46138e-08
1.49407e-08
1.48381e-08
1.48278e-08
1.40998e-08
1.32561e-08
1.33063e-08
1.31092e-08
1.31192e-08
1.38446e-08
1.39839e-08
1.31672e-08
1.23293e-08
1.09619e-08
9.15865e-09
7.28619e-09
6.00293e-09
4.49027e-09
3.3581e-09
2.23529e-09
1.87993e-09
1.34008e-09
1.11541e-09
7.0937e-10
4.94671e-10
5.03827e-10
4.28114e-10
5.89812e-10
5.57374e-10
4.78597e-10
1.4745e-08
1.4328e-08
1.37484e-08
1.32989e-08
1.30335e-08
1.2857e-08
1.25922e-08
1.23105e-08
1.25271e-08
1.29961e-08
1.34834e-08
1.41956e-08
1.43796e-08
1.37106e-08
1.28207e-08
1.09277e-08
7.78484e-09
4.97501e-09
2.89984e-09
1.15034e-09
3.56671e-10
8.70516e-11
1.83581e-11
8.58417e-12
1.75437e-11
3.65954e-11
4.10365e-11
5.56341e-11
3.75745e-11
2.71425e-11
6.92996e-12
3.10101e-12
4.45676e-14
2.88292e-13
4.15732e-12
8.58048e-12
1.68007e-11
2.65495e-11
2.91379e-11
5.29471e-11
1.22528e-08
1.2083e-08
1.17539e-08
1.15731e-08
1.15114e-08
1.13574e-08
1.1268e-08
1.1333e-08
1.13557e-08
1.17517e-08
1.20927e-08
1.16588e-08
1.06206e-08
8.57784e-09
5.23877e-09
2.21822e-09
4.90232e-10
5.03641e-12
5.06997e-11
3.49521e-10
7.30265e-10
1.05474e-09
1.14457e-09
1.09484e-09
9.61597e-10
7.62887e-10
4.80806e-10
2.88466e-10
1.51596e-10
8.44837e-11
2.87357e-11
9.57273e-12
9.61512e-13
6.66473e-14
1.05812e-13
9.62014e-13
2.69705e-12
6.19645e-12
6.74034e-12
7.37755e-12
1.03604e-09
1.0383e-09
1.07747e-09
1.24717e-09
1.4989e-09
1.72955e-09
1.96583e-09
2.20482e-09
2.3915e-09
2.5652e-09
2.61465e-09
2.4149e-09
1.92204e-09
1.27422e-09
6.00324e-10
1.54724e-10
6.69714e-12
1.14411e-11
1.26393e-10
2.87166e-10
3.59625e-10
3.38415e-10
2.72357e-10
2.09427e-10
1.57552e-10
1.16338e-10
7.19425e-11
3.81179e-11
1.71503e-11
8.0957e-12
2.42628e-12
4.3023e-13
2.04552e-14
1.00519e-13
6.54173e-13
8.55412e-13
1.81541e-12
1.77556e-12
2.39047e-12
1.92305e-12
6.0037e-12
6.07399e-12
8.13902e-12
1.34032e-11
2.17689e-11
3.247e-11
4.69237e-11
6.2576e-11
8.02071e-11
1.03147e-10
1.22389e-10
1.28775e-10
1.20565e-10
9.30446e-11
5.05958e-11
1.45897e-11
1.07062e-12
4.13937e-12
2.59185e-11
5.5876e-11
7.23975e-11
7.09978e-11
5.44028e-11
3.46282e-11
1.91453e-11
9.9404e-12
4.11869e-12
1.40574e-12
3.21325e-13
3.28011e-14
1.44711e-15
6.77437e-14
3.84914e-13
6.39514e-13
1.12794e-12
1.06967e-12
1.29464e-12
1.00359e-12
8.66401e-13
5.86089e-13
1.41696e-14
6.32058e-15
2.13354e-14
5.56574e-14
1.13918e-13
2.17914e-13
3.89642e-13
6.42708e-13
9.91083e-13
1.49356e-12
2.24688e-12
3.15043e-12
3.77322e-12
4.22678e-12
3.46141e-12
7.57871e-13
1.08191e-13
2.93782e-12
1.0442e-11
1.32894e-11
8.01906e-12
1.91139e-12
1.04288e-13
8.11277e-15
2.50292e-13
5.66487e-13
7.47556e-13
7.13812e-13
6.96234e-13
5.55741e-13
4.51567e-13
3.10781e-13
2.31728e-13
1.41313e-13
9.37316e-14
4.6673e-14
2.80023e-14
1.12301e-14
1.69488e-14
4.65336e-14
)
;

boundaryField
{
    inlet
    {
        type            calculated;
        value           nonuniform List<scalar> 
20
(
1.55473e-34
1.51439e-32
6.94343e-33
9.85119e-33
1.52231e-33
1.27447e-34
1.07588e-34
6.83434e-34
4.24618e-34
7.33679e-34
9.35682e-34
1.3902e-33
1.35761e-33
1.1405e-33
3.31397e-34
5.60449e-34
7.45202e-35
5.31543e-33
6.0115e-33
1.48829e-34
)
;
    }
    outlet
    {
        type            calculated;
        value           nonuniform List<scalar> 
27
(
3.1052e-33
7.05801e-33
7.92009e-33
2.21849e-32
4.72089e-33
1.44573e-32
2.42926e-33
1.16301e-32
1.35135e-32
1.02381e-32
7.84521e-33
1.35784e-32
1.18401e-32
1.48759e-32
6.03719e-33
1.05839e-33
6.92931e-37
3.44846e-35
1.21724e-34
2.02843e-35
8.27704e-35
2.76854e-34
5.24315e-37
2.67499e-32
3.62886e-33
4.89104e-35
4.81864e-33
)
;
    }
    lowerWall
    {
        type            fixedValue;
        value           uniform 0;
    }
    upperWall
    {
        type            fixedValue;
        value           uniform 0;
    }
    defaultFaces
    {
        type            empty;
    }
}


// ************************************************************************* //
