/*--------------------------------*- C++ -*----------------------------------*\
| =========                 |                                                 |
| \\      /  F ield         | OpenFOAM: The Open Source CFD Toolbox           |
|  \\    /   O peration     | Version:  2112                                  |
|   \\  /    A nd           | Website:  www.openfoam.com                      |
|    \\/     M anipulation  |                                                 |
\*---------------------------------------------------------------------------*/
FoamFile
{
    version     2.0;
    format      ascii;
    arch        "LSB;label=32;scalar=64";
    class       volScalarField;
    location    "0.48";
    object      p;
}
// * * * * * * * * * * * * * * * * * * * * * * * * * * * * * * * * * * * * * //

dimensions      [0 2 -2 0 0 0 0];

internalField   nonuniform List<scalar> 
1880
(
0.00312002
0.00298698
0.00289447
0.00284505
0.00281789
0.00279614
0.00277811
0.00275986
0.00274562
0.00273265
0.00272299
0.00271919
0.00271406
0.00271772
0.00272258
0.0027302
0.00274855
0.00276858
0.00279517
0.00283356
0.00287479
0.0029235
0.00299119
0.00305006
0.00312842
0.00320452
0.00327508
0.00332878
0.00336367
0.00328702
0.00294036
0.00290939
0.00286774
0.00283177
0.00280258
0.00278175
0.00276297
0.00275
0.00273521
0.00272458
0.0027134
0.00270887
0.0027025
0.0027049
0.00270886
0.00271367
0.00273069
0.00274669
0.0027694
0.00280702
0.00283617
0.00288716
0.00294187
0.00299706
0.00306197
0.00313128
0.00319079
0.00324035
0.00328654
0.0032811
0.00290594
0.00288689
0.00285623
0.00282437
0.00279677
0.00277493
0.00275589
0.00274262
0.00272699
0.00271699
0.00270446
0.00269847
0.00269078
0.00268946
0.00269154
0.00269245
0.00270589
0.0027161
0.00273394
0.00276021
0.0027835
0.00281983
0.00286045
0.0028979
0.00294407
0.00299179
0.00302613
0.00306102
0.00308798
0.00309775
0.00284787
0.00283927
0.00281991
0.00279953
0.00277793
0.00275911
0.0027419
0.00272687
0.00271303
0.00270054
0.00269051
0.00268077
0.00267351
0.00266814
0.00266753
0.00266545
0.00267227
0.00267748
0.00268849
0.00270402
0.00271878
0.00274173
0.00276676
0.002786
0.00281706
0.0028357
0.00285245
0.00286057
0.00286088
0.00284293
0.00281818
0.00281334
0.00279954
0.00278354
0.00276554
0.00274901
0.00273146
0.0027159
0.00270078
0.00268734
0.00267638
0.00266462
0.00265549
0.00264679
0.00264252
0.00263694
0.00263651
0.00263808
0.00263992
0.00264664
0.0026519
0.00266226
0.00267128
0.00267766
0.00268522
0.00268579
0.00267945
0.00266237
0.00263131
0.00258766
0.00279054
0.00278643
0.00277596
0.00276204
0.00274808
0.00273272
0.00271744
0.00270102
0.00268558
0.00267065
0.00265869
0.00264555
0.00263366
0.00262269
0.00261428
0.00260456
0.0025987
0.00259363
0.00258878
0.00258605
0.00258206
0.00257998
0.00257626
0.00256591
0.00255734
0.00253939
0.00251145
0.00247104
0.0024172
0.00234632
0.00276913
0.00276606
0.00275773
0.0027456
0.00273339
0.00271927
0.00270477
0.0026881
0.00267164
0.00265527
0.00264138
0.00262652
0.00261161
0.00259813
0.00258529
0.00257191
0.00255975
0.00254909
0.00253706
0.00252525
0.0025121
0.00249937
0.00248218
0.00245914
0.00243457
0.00239915
0.00235339
0.00229465
0.00221828
0.00212722
0.00275233
0.00274864
0.00274198
0.00273064
0.0027192
0.00270547
0.00269102
0.00267432
0.00265671
0.00263896
0.00262315
0.00260611
0.00258863
0.00257191
0.00255541
0.00253758
0.00252015
0.00250335
0.0024847
0.0024644
0.00244305
0.00241936
0.00239163
0.00235598
0.00231715
0.00226777
0.00220685
0.00213068
0.0020383
0.00193039
0.00273872
0.00273491
0.0027291
0.00271819
0.00270695
0.00269309
0.00267819
0.00266128
0.0026423
0.00262322
0.00260526
0.00258597
0.00256584
0.00254584
0.00252565
0.00250361
0.00248083
0.00245836
0.00243332
0.00240539
0.00237576
0.00234294
0.00230508
0.00225835
0.00220744
0.00214583
0.00207105
0.00198193
0.0018764
0.00175474
0.00272884
0.00272455
0.00271887
0.00270834
0.00269654
0.00268224
0.00266637
0.00264875
0.00262861
0.00260774
0.00258784
0.00256612
0.00254322
0.0025201
0.00249626
0.00246996
0.00244237
0.00241436
0.00238347
0.00234827
0.00231141
0.00227024
0.00222326
0.00216717
0.0021054
0.00203318
0.00194773
0.00184749
0.00173151
0.00159992
0.00272208
0.00271746
0.00271162
0.00270106
0.00268833
0.00267316
0.00265586
0.00263729
0.00261573
0.00259297
0.00257116
0.00254686
0.00252131
0.00249519
0.00246767
0.00243748
0.00240523
0.0023721
0.00233579
0.00229404
0.00225046
0.00220211
0.00214693
0.00208251
0.00201158
0.00193072
0.00183629
0.00172704
0.00160325
0.00146423
0.0027189
0.00271403
0.00270743
0.0026965
0.00268254
0.00266607
0.00264722
0.00262715
0.00260417
0.00257949
0.00255564
0.002529
0.00250065
0.00247168
0.00244072
0.00240662
0.00237016
0.00233233
0.002291
0.00224342
0.00219371
0.00213911
0.00207659
0.00200498
0.00192645
0.00183817
0.00173671
0.00162047
0.00149058
0.00134633
0.00271939
0.00271415
0.00270639
0.00269442
0.00267875
0.00266044
0.00263966
0.00261778
0.0025933
0.00256665
0.00254089
0.00251206
0.00248099
0.00244943
0.00241514
0.00237738
0.00233718
0.00229497
0.00224909
0.00219647
0.0021412
0.00208124
0.00201244
0.00193454
0.0018498
0.00175552
0.00164832
0.00152662
0.00139208
0.001244
0.00272453
0.00271898
0.00270991
0.00269653
0.00267898
0.00265847
0.00263561
0.00261158
0.00258534
0.00255679
0.00252874
0.00249772
0.0024639
0.00242957
0.00239221
0.00235089
0.00230721
0.0022611
0.00221091
0.00215392
0.00209371
0.00202898
0.00195481
0.00187155
0.00178191
0.00168274
0.00157084
0.00144501
0.00130705
0.00115667
0.0027341
0.00272733
0.00271572
0.00269936
0.00267874
0.00265533
0.00263006
0.00260389
0.00257601
0.00254591
0.00251599
0.00248321
0.00244716
0.0024105
0.00237052
0.00232609
0.00227949
0.00223
0.00217596
0.00211533
0.00205091
0.00198191
0.00190333
0.0018157
0.00172205
0.00161893
0.00150317
0.00137437
0.0012341
0.00108174
0.00275297
0.00274485
0.00273015
0.00270982
0.00268528
0.00265843
0.00263059
0.00260231
0.00257274
0.00254109
0.00250901
0.002474
0.00243546
0.00239598
0.00235317
0.00230568
0.00225613
0.00220349
0.0021458
0.00208193
0.00201385
0.00194083
0.00185855
0.00176754
0.00167063
0.00156418
0.00144524
0.00131429
0.00117266
0.00101977
0.00277337
0.00276113
0.00274058
0.00271453
0.00268585
0.00265625
0.00262665
0.002597
0.002566
0.00253296
0.00249888
0.00246178
0.00242127
0.00237965
0.00233477
0.00228522
0.00223357
0.00217851
0.00211794
0.00205167
0.00198077
0.0019042
0.00181894
0.00172556
0.00162609
0.00151705
0.00139603
0.00126387
0.00112113
0.000966597
0.0028266
0.00280402
0.00276957
0.00273204
0.0026964
0.00266303
0.00263165
0.00260041
0.00256745
0.00253246
0.00249596
0.0024567
0.00241459
0.00237094
0.00232413
0.00227291
0.00221905
0.00216135
0.00209795
0.002029
0.00195507
0.00187502
0.00178736
0.00169209
0.00158993
0.00147842
0.00135598
0.00122334
0.0010808
0.000926947
0.00285534
0.00282064
0.00277559
0.00273294
0.00269541
0.00266184
0.00263015
0.00259775
0.0025631
0.00252677
0.00248861
0.00244778
0.00240459
0.0023592
0.00231061
0.00225803
0.00220187
0.00214163
0.00207636
0.00200606
0.00192997
0.00184716
0.00175825
0.00166276
0.00155909
0.00144591
0.00132271
0.00118943
0.00104609
0.000891546
0.0030349
0.00289505
0.00279769
0.00274351
0.00270768
0.00267397
0.00263935
0.00260348
0.00256626
0.00252821
0.00248884
0.00244759
0.00240406
0.0023577
0.00230798
0.0022546
0.00219728
0.00213595
0.00206972
0.00199815
0.00192065
0.00183691
0.00174699
0.0016501
0.00154491
0.00143082
0.00130758
0.00117516
0.00103335
0.000881274
0.00341541
0.00352737
0.00316224
0.00283512
0.00221838
0.00169538
0.000792094
7.50245e-05
-0.00133283
-0.00262878
0.00342719
0.00335927
0.00283328
0.00245908
0.00178018
0.00119668
0.000345753
-0.000511801
-0.00166801
-0.00296533
0.003136
0.00294953
0.00248654
0.00216316
0.00152345
0.00101711
0.000188897
-0.000535721
-0.00159519
-0.00252632
0.00283417
0.0026198
0.00221072
0.00180288
0.00124969
0.000661868
-3.11546e-05
-0.000792479
-0.00164008
-0.00251251
0.00253302
0.00230445
0.00188698
0.00152098
0.00100964
0.000494264
-0.000147341
-0.000851299
-0.00158537
-0.00231997
0.00226557
0.00201843
0.0016634
0.00126779
0.000819084
0.000289707
-0.000276483
-0.000931153
-0.00158259
-0.00223434
0.00202181
0.00178295
0.00143078
0.00105746
0.000637977
0.000157202
-0.000362424
-0.000952545
-0.00154256
-0.00211322
0.00180952
0.0015682
0.0012486
0.000882245
0.000495247
4.12501e-05
-0.000439014
-0.0009757
-0.00151464
-0.00202887
0.00161955
0.00138814
0.00108064
0.000733577
0.00036785
-4.94758e-05
-0.000496107
-0.000985117
-0.00147732
-0.00194345
0.00145604
0.00123022
0.000941632
0.000611159
0.000266088
-0.000121784
-0.000538708
-0.000988809
-0.00143981
-0.00186968
0.00131211
0.00109441
0.0008194
0.000506773
0.000178951
-0.000182095
-0.000571705
-0.00098808
-0.0014028
-0.00180081
0.00118961
0.000978822
0.000718009
0.000421871
0.000110249
-0.000228489
-0.000593257
-0.000980036
-0.00136409
-0.00173612
0.00108281
0.000878051
0.000629452
0.000348715
5.17974e-05
-0.00026792
-0.000610473
-0.000970992
-0.00132889
-0.00167745
0.000993933
0.000795072
0.000557974
0.000291266
7.9841e-06
-0.000295419
-0.000618358
-0.000956012
-0.00129222
-0.00162174
0.000916271
0.000721385
0.000494178
0.000240062
-3.07763e-05
-0.000319904
-0.000625649
-0.000943407
-0.00126076
-0.00157289
0.000854705
0.000664552
0.000446397
0.000203441
-5.63009e-05
-0.000333121
-0.000624338
-0.000925697
-0.00122785
-0.00152666
0.000799414
0.000611617
0.000400887
0.000167858
-8.15928e-05
-0.000347206
-0.00062551
-0.000912703
-0.0012015
-0.0014879
0.000761014
0.00057713
0.000372863
0.000147685
-9.37568e-05
-0.00035052
-0.00061873
-0.000895143
-0.00117421
-0.00145217
0.000724789
0.000542832
0.000343927
0.000126472
-0.000107148
-0.000355634
-0.000614694
-0.000882083
-0.00115324
-0.00142397
0.000717103
0.000536
0.000337868
0.00012241
-0.000107955
-0.00035228
-0.000607264
-0.000871471
-0.00114012
-0.00141116
-0.00524678
-0.00563856
-0.00585152
-0.00593409
-0.00611668
-0.00606762
-0.00702703
-0.00928397
-0.0115489
-0.0130269
-0.0135263
-0.0130523
-0.0117945
-0.0100528
-0.00799611
-0.0058518
-0.00368917
-0.00169285
-1.78916e-05
0.00130441
0.00214957
0.00257341
0.00269696
0.00260763
0.00240343
0.00214836
0.00188196
0.00162819
0.00139894
0.00119941
0.00102783
0.000880545
0.000749902
0.000628731
0.000509731
0.000392337
0.000279058
0.000177253
9.20608e-05
2.25061e-05
-0.00541408
-0.00571159
-0.00592669
-0.00589738
-0.00602787
-0.00659546
-0.00794657
-0.0102453
-0.0123602
-0.0137318
-0.0140934
-0.0135165
-0.0121527
-0.0103409
-0.00824878
-0.00610211
-0.00393897
-0.00190807
-0.000212148
0.00113496
0.00200305
0.00245159
0.00259293
0.00252141
0.00233331
0.00209224
0.00183725
0.00159183
0.00136917
0.00117488
0.00100719
0.000863094
0.000733699
0.000612995
0.000493795
0.000376784
0.000266846
0.000169573
8.99908e-05
2.42665e-05
-0.00562539
-0.00597103
-0.00585638
-0.00614498
-0.00621694
-0.00723955
-0.00916017
-0.0114882
-0.0135084
-0.0147961
-0.0150265
-0.0142688
-0.0127271
-0.0107996
-0.00868317
-0.00651602
-0.00436491
-0.00231343
-0.000576658
0.000792905
0.00170446
0.00218554
0.00235554
0.0023152
0.00215803
0.00194638
0.00171865
0.00149672
0.00129341
0.00111349
0.0009561
0.000819127
0.000696745
0.000583009
0.000473459
0.00036871
0.00027097
0.000180528
0.000101316
3.15415e-05
-0.00526767
-0.00558843
-0.00553747
-0.0056471
-0.0061212
-0.00794299
-0.010269
-0.0125756
-0.0145687
-0.0158323
-0.0159558
-0.0150416
-0.0133486
-0.0113011
-0.00913743
-0.0069785
-0.00485097
-0.00278613
-0.00102603
0.000357437
0.00129595
0.00181339
0.00202123
0.00202463
0.00191327
0.00174568
0.00155786
0.00136981
0.00119389
0.00103585
0.000895226
0.000769792
0.000655651
0.000549205
0.000447412
0.000349423
0.000258432
0.00017426
9.90899e-05
3.17438e-05
-0.00547525
-0.00596188
-0.00537286
-0.00561291
-0.00586121
-0.00821493
-0.0108705
-0.013315
-0.0153961
-0.0167182
-0.0168531
-0.0157827
-0.0139281
-0.0117635
-0.0095709
-0.00741662
-0.00530699
-0.00326418
-0.00149609
-0.000112957
0.000830129
0.00136969
0.00161676
0.00167124
0.00161471
0.00150029
0.00136072
0.00121394
0.00107144
0.000939115
0.000817882
0.000706161
0.000602839
0.000506204
0.000413939
0.000324723
0.000243721
0.000166807
9.63849e-05
3.15873e-05
-0.00439741
-0.00498933
-0.00436789
-0.0046002
-0.00539072
-0.00810059
-0.0110785
-0.0136176
-0.0157242
-0.0170554
-0.017195
-0.0161115
-0.0142421
-0.0120601
-0.00986849
-0.00773477
-0.00565518
-0.00365367
-0.00191756
-0.000561155
0.000370662
0.000924907
0.00120748
0.00131129
0.00131049
0.00125093
0.00116057
0.00105517
0.000945683
0.000838976
0.000737694
0.000641454
0.000550035
0.000463826
0.000381794
0.000304619
0.000227645
0.000156859
9.15255e-05
2.99446e-05
-0.00464565
-0.0058072
-0.0048716
-0.00444624
-0.00490218
-0.0076377
-0.0107173
-0.0133471
-0.0154825
-0.0168119
-0.0169946
-0.0159611
-0.014182
-0.0120914
-0.00995652
-0.0078692
-0.00584856
-0.00391987
-0.00224889
-0.000954499
-6.54844e-05
0.000494807
0.000820293
0.000979437
0.00103161
0.00102023
0.0009723
0.000902523
0.000821816
0.000738162
0.000655077
0.000573445
0.000493219
0.000416817
0.000343744
0.000274771
0.000207534
0.000144205
8.48795e-05
2.78755e-05
-0.00521429
-0.00449657
-0.00339286
-0.00345941
-0.00463925
-0.00710622
-0.01001
-0.0125324
-0.0145429
-0.0157702
-0.0160073
-0.0151948
-0.0136623
-0.0117894
-0.00978704
-0.00778998
-0.00585766
-0.00404572
-0.00249236
-0.00128687
-0.000449424
9.94996e-05
0.000451484
0.00066108
0.00076826
0.000804899
0.000795453
0.000755384
0.000697919
0.000634151
0.000567979
0.00050117
0.00043275
0.000366989
0.000304434
0.00024447
0.000186517
0.000130303
7.69465e-05
2.54993e-05
-0.00395073
-0.00440313
-0.0045602
-0.00441013
-0.00449883
-0.00667998
-0.0093628
-0.011613
-0.0133513
-0.014449
-0.0147422
-0.0141386
-0.0128605
-0.0112106
-0.00936129
-0.00748215
-0.00568483
-0.00403111
-0.00263246
-0.00155229
-0.000776085
-0.000233336
0.000135187
0.00037332
0.000514432
0.000585043
0.000609334
0.000600223
0.000566827
0.000521841
0.000471774
0.00041992
0.000365429
0.000311662
0.000259732
0.000209669
0.000161183
0.000113639
6.75317e-05
2.27014e-05
-0.00339814
-0.00391489
-0.00395631
-0.00410657
-0.00492586
-0.0066731
-0.00884401
-0.0107387
-0.0122194
-0.0131491
-0.0133849
-0.0128861
-0.0117964
-0.0103327
-0.00866378
-0.00696178
-0.00536211
-0.00392744
-0.00270893
-0.00175068
-0.00104126
-0.000523004
-0.000147386
0.000113036
0.000279754
0.00037481
0.000420173
0.000432705
0.000422525
0.000399581
0.000369002
0.000333354
0.000293673
0.00025263
0.000212653
0.000172697
0.000133279
9.46046e-05
5.43565e-05
1.87174e-05
-0.00311905
-0.00362724
-0.00400294
-0.00453845
-0.00525738
-0.00649005
-0.00814496
-0.00964247
-0.0107936
-0.0115164
-0.0117274
-0.0113429
-0.0104296
-0.00919009
-0.007791
-0.00637301
-0.00503645
-0.00383085
-0.00278436
-0.00192721
-0.00126345
-0.000767653
-0.000405932
-0.000145754
3.68511e-05
0.000157494
0.000231212
0.000269376
0.000281029
0.000277251
0.000264223
0.000245099
0.000220788
0.000193863
0.000165917
0.000136311
0.000106612
7.74114e-05
4.90239e-05
1.63925e-05
-0.00285877
-0.00338075
-0.00385965
-0.00441203
-0.00509982
-0.00605999
-0.00729023
-0.00845746
-0.00936946
-0.00995347
-0.0101415
-0.00986293
-0.00914588
-0.00814811
-0.00701779
-0.00586386
-0.00475797
-0.00374242
-0.00284019
-0.00207462
-0.00146125
-0.000986676
-0.000627796
-0.00036264
-0.000171403
-3.76477e-05
5.42674e-05
0.000114366
0.000148891
0.000165926
0.000169332
0.0001651
0.000153879
0.000138389
0.000120569
9.97341e-05
7.84681e-05
5.65342e-05
3.43667e-05
1.15301e-05
-0.00268822
-0.00318625
-0.00369715
-0.00425408
-0.00490253
-0.0056708
-0.00659755
-0.00751345
-0.00823627
-0.00868993
-0.00882157
-0.00860507
-0.00806076
-0.00728006
-0.00637042
-0.00542837
-0.00451109
-0.00364565
-0.00286037
-0.00218079
-0.00162218
-0.00117981
-0.000833351
-0.000563884
-0.000356847
-0.000204397
-9.65831e-05
-2.19368e-05
2.82154e-05
6.06679e-05
7.86645e-05
8.78431e-05
8.95653e-05
8.61513e-05
7.83014e-05
6.60569e-05
5.31758e-05
3.94497e-05
2.47652e-05
8.51925e-06
-0.00254943
-0.00301939
-0.00352244
-0.00406007
-0.00465062
-0.00529393
-0.00601304
-0.0067235
-0.00728959
-0.00764238
-0.00774922
-0.00759083
-0.00717598
-0.00656158
-0.00583014
-0.00505614
-0.00428738
-0.00355059
-0.00287149
-0.00227135
-0.00176035
-0.0013402
-0.00100438
-0.000740079
-0.000533572
-0.000373954
-0.000252169
-0.000161574
-9.60325e-05
-4.87961e-05
-1.61458e-05
6.01782e-06
1.95414e-05
2.64253e-05
2.89352e-05
2.77504e-05
2.40685e-05
1.84436e-05
1.14603e-05
3.77933e-06
-0.00243882
-0.00287435
-0.00334885
-0.00385326
-0.00438601
-0.00493806
-0.00551741
-0.00607621
-0.00652684
-0.00681359
-0.00690268
-0.00677938
-0.00645504
-0.00596919
-0.0053751
-0.0047321
-0.00408526
-0.00345921
-0.00287095
-0.00233657
-0.00187126
-0.0014815
-0.00116203
-0.000902554
-0.000692525
-0.000524479
-0.000392182
-0.000289638
-0.000210895
-0.000149986
-0.000103749
-6.83863e-05
-4.24584e-05
-2.42163e-05
-1.1427e-05
-4.16078e-06
2.58171e-07
2.45589e-06
1.90089e-06
9.45079e-07
-0.00233694
-0.00274171
-0.00318066
-0.00364672
-0.00412713
-0.00460842
-0.00508726
-0.00553654
-0.00590114
-0.00613426
-0.00620776
-0.00611414
-0.00585811
-0.00546747
-0.00498524
-0.00445486
-0.00391027
-0.00337295
-0.00286133
-0.00239074
-0.00197031
-0.00160638
-0.00130053
-0.00104762
-0.000838352
-0.000664695
-0.000522361
-0.000407986
-0.000316396
-0.000242756
-0.000184506
-0.000138628
-0.000102597
-7.44274e-05
-5.25223e-05
-3.62817e-05
-2.38308e-05
-1.47373e-05
-8.00411e-06
-2.63023e-06
-0.00224216
-0.00261962
-0.00302458
-0.00345149
-0.00388394
-0.00430709
-0.00471381
-0.0050854
-0.00538416
-0.00557472
-0.00563868
-0.0055662
-0.00536249
-0.00504894
-0.00465609
-0.00421504
-0.00375415
-0.00329495
-0.00285029
-0.00243235
-0.00205283
-0.00171827
-0.00142901
-0.0011818
-0.000971853
-0.000793932
-0.000644376
-0.000520984
-0.000419643
-0.00033573
-0.000266029
-0.000208896
-0.000162136
-0.000124238
-9.34537e-05
-6.86601e-05
-4.88703e-05
-3.2101e-05
-1.79906e-05
-6.17515e-06
-0.00215392
-0.00250718
-0.00288036
-0.00327007
-0.00366082
-0.00403665
-0.00438763
-0.00470026
-0.00494899
-0.00510852
-0.00516398
-0.00510903
-0.00494754
-0.00469345
-0.00437084
-0.00400619
-0.00361876
-0.00322415
-0.0028377
-0.00247035
-0.00212928
-0.00181927
-0.00154366
-0.00130324
-0.0010953
-0.00091512
-0.000759168
-0.000626132
-0.000513472
-0.000418117
-0.000337297
-0.000269275
-0.000212322
-0.000164825
-0.000125444
-9.30451e-05
-6.61035e-05
-4.37539e-05
-2.48182e-05
-8.07202e-06
-0.00207207
-0.00240366
-0.00274866
-0.00310512
-0.0034588
-0.00379503
-0.00410306
-0.00437034
-0.00458053
-0.0047164
-0.0047665
-0.00472557
-0.00459622
-0.00439105
-0.0041278
-0.0038248
-0.00349865
-0.00316353
-0.0028304
-0.00250608
-0.00219773
-0.00191216
-0.00165262
-0.00141992
-0.00121307
-0.00102943
-0.000866887
-0.000725394
-0.000603494
-0.000498651
-0.000408264
-0.000331137
-0.000265429
-0.000209786
-0.000162701
-0.000122654
-8.85919e-05
-5.90163e-05
-3.34873e-05
-1.11453e-05
-0.00199671
-0.0023094
-0.00262993
-0.00295676
-0.0032784
-0.00358153
-0.00385475
-0.00408747
-0.00426782
-0.00438456
-0.00443019
-0.00440013
-0.00429716
-0.00413168
-0.00391672
-0.00366676
-0.00339559
-0.00311291
-0.00282567
-0.00254128
-0.00226591
-0.00200366
-0.00175746
-0.00153025
-0.00132365
-0.00113704
-0.000968768
-0.000818981
-0.000687118
-0.000571748
-0.000470753
-0.000382893
-0.000306987
-0.000242236
-0.000187459
-0.000141401
-0.000102171
-6.82681e-05
-3.85799e-05
-1.25438e-05
-0.00192791
-0.00222429
-0.0025234
-0.00282467
-0.00311898
-0.0033936
-0.00363759
-0.00384206
-0.00399951
-0.00410158
-0.00414278
-0.00412111
-0.00403977
-0.00390662
-0.00373303
-0.00353025
-0.00330704
-0.00307095
-0.00282814
-0.00258204
-0.00233597
-0.00209417
-0.0018603
-0.00163836
-0.00143168
-0.00124121
-0.0010664
-0.000907809
-0.000765929
-0.000640631
-0.000530391
-0.000434077
-0.000350163
-0.000277623
-0.000215617
-0.000162662
-0.000117564
-7.8817e-05
-4.49734e-05
-1.49086e-05
-0.00186586
-0.00214838
-0.00242953
-0.00270911
-0.00297969
-0.00322999
-0.00345013
-0.00363236
-0.00376987
-0.003859
-0.00389637
-0.00388063
-0.00381562
-0.00370975
-0.00357179
-0.00340979
-0.00323098
-0.00304026
-0.00283947
-0.00262933
-0.00241126
-0.00218839
-0.00196496
-0.00174647
-0.00153783
-0.00134183
-0.00115949
-0.000991935
-0.000839892
-0.000703844
-0.000582881
-0.000476447
-0.000383431
-0.000303401
-0.000234998
-0.000176588
-0.000126824
-8.42901e-05
-4.75103e-05
-1.53333e-05
-0.00181041
-0.0020818
-0.00234807
-0.00260901
-0.00285869
-0.00308766
-0.00328727
-0.00345045
-0.0035723
-0.00365022
-0.00368244
-0.0036703
-0.00361835
-0.00353458
-0.00342754
-0.00330364
-0.00316697
-0.00301962
-0.00286014
-0.00268582
-0.00249544
-0.00229005
-0.00207399
-0.0018556
-0.00164266
-0.00143976
-0.00124866
-0.0010711
-0.000908321
-0.000761516
-0.000630365
-0.00051418
-0.000412733
-0.000325549
-0.000251373
-0.000188154
-0.000134635
-8.90635e-05
-5.01689e-05
-1.63315e-05
-0.00176218
-0.00202469
-0.00227928
-0.00252509
-0.00275699
-0.00296684
-0.00314759
-0.00329417
-0.00340226
-0.00346933
-0.00349554
-0.00348421
-0.00344111
-0.00337559
-0.00329627
-0.00320847
-0.00311357
-0.00300967
-0.00289145
-0.00275185
-0.00258756
-0.00239821
-0.0021877
-0.00196696
-0.00174659
-0.00153332
-0.00133044
-0.00114107
-0.000967271
-0.000809484
-0.000667948
-0.000542934
-0.000433893
-0.000340149
-0.000260652
-0.00019333
-0.000136924
-8.92511e-05
-4.94009e-05
-1.53747e-05
-0.00172079
-0.00197706
-0.00222289
-0.00245702
-0.00267492
-0.00286985
-0.00303458
-0.00316532
-0.00326008
-0.0033164
-0.00333511
-0.00332164
-0.00328363
-0.00323209
-0.00317698
-0.00312342
-0.0030724
-0.00301518
-0.00293714
-0.00282693
-0.00268035
-0.00249864
-0.00228971
-0.00206628
-0.00183968
-0.00161703
-0.00140198
-0.00119957
-0.00101315
-0.000845065
-0.000694828
-0.000562117
-0.000446546
-0.000347622
-0.000264228
-0.000193961
-0.000135791
-8.69969e-05
-4.7351e-05
-1.41359e-05
-0.00168759
-0.00193973
-0.00217918
-0.002403
-0.00260791
-0.0027897
-0.00294279
-0.00306229
-0.00314571
-0.00319105
-0.00320092
-0.00318272
-0.0031461
-0.00310426
-0.00306995
-0.00304928
-0.0030426
-0.00303765
-0.00300284
-0.00291716
-0.00277581
-0.00258628
-0.00236435
-0.00212761
-0.00188874
-0.00165597
-0.00143342
-0.00122478
-0.00103297
-0.000859567
-0.000704352
-0.000567357
-0.000448407
-0.000346918
-0.000261567
-0.000190133
-0.000131338
-8.25106e-05
-4.37429e-05
-1.1984e-05
-0.00167697
-0.0019277
-0.00216297
-0.00238172
-0.00258143
-0.00275729
-0.00290371
-0.00301677
-0.00309378
-0.00313309
-0.00313803
-0.00311636
-0.00307852
-0.00303788
-0.00300774
-0.00299628
-0.00300358
-0.00301327
-0.00299484
-0.00292426
-0.00279495
-0.00261183
-0.00239052
-0.00215117
-0.00190745
-0.00166976
-0.00144272
-0.00123112
-0.00103692
-0.000861654
-0.000705042
-0.000567352
-0.000447666
-0.000345862
-0.000259816
-0.000188288
-0.000129184
-8.06146e-05
-4.23167e-05
-1.08097e-05
)
;

boundaryField
{
    inlet
    {
        type            zeroGradient;
    }
    outlet
    {
        type            fixedValue;
        value           uniform 0;
    }
    lowerWall
    {
        type            zeroGradient;
    }
    upperWall
    {
        type            zeroGradient;
    }
    defaultFaces
    {
        type            empty;
    }
}


// ************************************************************************* //
