/*--------------------------------*- C++ -*----------------------------------*\
| =========                 |                                                 |
| \\      /  F ield         | OpenFOAM: The Open Source CFD Toolbox           |
|  \\    /   O peration     | Version:  2112                                  |
|   \\  /    A nd           | Website:  www.openfoam.com                      |
|    \\/     M anipulation  |                                                 |
\*---------------------------------------------------------------------------*/
FoamFile
{
    version     2.0;
    format      ascii;
    arch        "LSB;label=32;scalar=64";
    class       surfaceScalarField;
    location    "0.48";
    object      phi;
}
// * * * * * * * * * * * * * * * * * * * * * * * * * * * * * * * * * * * * * //

dimensions      [0 3 -1 0 0 0 0];

oriented        oriented;

internalField   nonuniform List<scalar> 
3653
(
9.92237e-07
7.76292e-09
9.79264e-07
1.29731e-08
9.63729e-07
1.55347e-08
9.48312e-07
1.54171e-08
9.31738e-07
1.65741e-08
9.14902e-07
1.68359e-08
8.9734e-07
1.75625e-08
8.78845e-07
1.84946e-08
8.61145e-07
1.77001e-08
8.41402e-07
1.9743e-08
8.23454e-07
1.79477e-08
8.03313e-07
2.01414e-08
7.83794e-07
1.95192e-08
7.63581e-07
2.02126e-08
7.42315e-07
2.12661e-08
7.20212e-07
2.21029e-08
6.97953e-07
2.2259e-08
6.72975e-07
2.49778e-08
6.4746e-07
2.55157e-08
6.19982e-07
2.74779e-08
5.88926e-07
3.10558e-08
5.5629e-07
3.26358e-08
5.20463e-07
3.58268e-08
4.77034e-07
4.34289e-08
4.32518e-07
4.45161e-08
3.78491e-07
5.40272e-08
3.18162e-07
6.03289e-08
2.50444e-07
6.77186e-08
1.7136e-07
7.90831e-08
6.79166e-08
1.03444e-07
1.00172e-06
6.03832e-09
1.00598e-06
8.71903e-09
1.00829e-06
1.32244e-08
1.00982e-06
1.38843e-08
1.0107e-06
1.56982e-08
1.01169e-06
1.5848e-08
1.01031e-06
1.89385e-08
1.01155e-06
1.72519e-08
1.0082e-06
2.10537e-08
1.00794e-06
2.00057e-08
1.00396e-06
2.19218e-08
1.00214e-06
2.19632e-08
9.96237e-07
2.54226e-08
9.94649e-07
2.18006e-08
9.85e-07
3.09149e-08
9.82701e-07
2.44021e-08
9.7192e-07
3.30394e-08
9.64888e-07
3.20103e-08
9.53097e-07
3.73063e-08
9.43478e-07
3.70976e-08
9.24833e-07
4.97006e-08
9.14782e-07
4.26865e-08
8.88696e-07
6.19128e-08
8.72148e-07
5.9977e-08
8.4057e-07
7.60941e-08
8.15321e-07
7.92759e-08
7.71525e-07
1.04125e-07
7.37933e-07
1.01311e-07
6.79331e-07
1.37685e-07
1.30086e-07
6.17161e-07
1.00138e-06
4.6553e-09
1.00458e-06
5.51768e-09
1.00756e-06
1.02489e-08
1.0096e-06
1.18472e-08
1.01148e-06
1.38163e-08
1.01369e-06
1.36387e-08
1.01407e-06
1.85565e-08
1.01758e-06
1.37401e-08
1.01649e-06
2.21499e-08
1.01982e-06
1.66684e-08
1.01866e-06
2.30831e-08
1.02035e-06
2.02739e-08
1.01897e-06
2.67988e-08
1.02063e-06
2.0141e-08
1.01683e-06
3.4719e-08
1.01879e-06
2.24387e-08
1.01392e-06
3.79131e-08
1.01257e-06
3.3363e-08
1.00923e-06
4.06388e-08
1.00462e-06
4.17118e-08
9.98415e-07
5.59068e-08
9.9434e-07
4.67611e-08
9.82914e-07
7.33386e-08
9.77483e-07
6.54084e-08
9.63281e-07
9.02958e-08
9.5305e-07
8.95072e-08
9.3604e-07
1.21135e-07
9.1889e-07
1.18461e-07
8.9824e-07
1.58335e-07
1.61392e-07
8.66934e-07
1.00077e-06
3.88313e-09
1.00277e-06
3.51687e-09
1.00401e-06
9.01114e-09
1.00698e-06
8.88171e-09
1.00735e-06
1.34452e-08
1.01053e-06
1.04574e-08
1.01063e-06
1.84589e-08
1.01344e-06
1.09298e-08
1.01386e-06
2.1723e-08
1.01605e-06
1.4483e-08
1.01642e-06
2.2709e-08
1.01795e-06
1.87429e-08
1.01814e-06
2.66104e-08
1.01869e-06
1.95947e-08
1.01905e-06
3.43556e-08
1.0185e-06
2.29914e-08
1.01801e-06
3.84041e-08
1.01742e-06
3.39516e-08
1.01539e-06
4.267e-08
1.01394e-06
4.31573e-08
1.01229e-06
5.75601e-08
1.00769e-06
5.13564e-08
1.00636e-06
7.4674e-08
1.00123e-06
7.05359e-08
9.9776e-07
9.37676e-08
9.91811e-07
9.54562e-08
9.9013e-07
1.22815e-07
9.78902e-07
1.2969e-07
9.77286e-07
1.59951e-07
1.72941e-07
9.65737e-07
1.00035e-06
3.53589e-09
1.00177e-06
2.09096e-09
1.00286e-06
7.91937e-09
1.00525e-06
6.49891e-09
1.00614e-06
1.25576e-08
1.00868e-06
7.91686e-09
1.00925e-06
1.78813e-08
1.01163e-06
8.5521e-09
1.01225e-06
2.11014e-08
1.01432e-06
1.24175e-08
1.01488e-06
2.21452e-08
1.01647e-06
1.71503e-08
1.01698e-06
2.61058e-08
1.01766e-06
1.89167e-08
1.01864e-06
3.33685e-08
1.01818e-06
2.34511e-08
1.01867e-06
3.79145e-08
1.01862e-06
3.40019e-08
1.01724e-06
4.40523e-08
1.01757e-06
4.28332e-08
1.01612e-06
5.90104e-08
1.01447e-06
5.30052e-08
1.01367e-06
7.54664e-08
1.01189e-06
7.23187e-08
1.01042e-06
9.52345e-08
1.00917e-06
9.67133e-08
1.00832e-06
1.23661e-07
1.00804e-06
1.29976e-07
1.00811e-06
1.59877e-07
1.71861e-07
1.00919e-06
1.00053e-06
3.00571e-09
1.00143e-06
1.19439e-09
1.00236e-06
6.98444e-09
1.00405e-06
4.80719e-09
1.00544e-06
1.11717e-08
1.00682e-06
6.53358e-09
1.00879e-06
1.59093e-08
1.00956e-06
7.78817e-09
1.01169e-06
1.89678e-08
1.01261e-06
1.15029e-08
1.01427e-06
2.04829e-08
1.01519e-06
1.62329e-08
1.01684e-06
2.44522e-08
1.01682e-06
1.8941e-08
1.01902e-06
3.11688e-08
1.01834e-06
2.41272e-08
1.01987e-06
3.63798e-08
1.01986e-06
3.40195e-08
1.02015e-06
4.37583e-08
1.02002e-06
4.29627e-08
1.02107e-06
5.79627e-08
1.01939e-06
5.46871e-08
1.0211e-06
7.37487e-08
1.02006e-06
7.33681e-08
1.02138e-06
9.39088e-08
1.02117e-06
9.69273e-08
1.02441e-06
1.20413e-07
1.02541e-06
1.28981e-07
1.03005e-06
1.55232e-07
1.67078e-07
1.03484e-06
1.00039e-06
2.61272e-09
1.00103e-06
5.5249e-10
1.0019e-06
6.12142e-09
1.00327e-06
3.43169e-09
1.00468e-06
9.76277e-09
1.00603e-06
5.18823e-09
1.00804e-06
1.38932e-08
1.00887e-06
6.96509e-09
1.01114e-06
1.66935e-08
1.01201e-06
1.06292e-08
1.01392e-06
1.85789e-08
1.01507e-06
1.50844e-08
1.01677e-06
2.27526e-08
1.01744e-06
1.82704e-08
1.01952e-06
2.9084e-08
1.01979e-06
2.38581e-08
1.02139e-06
3.4781e-08
1.02237e-06
3.30415e-08
1.02304e-06
4.30878e-08
1.0241e-06
4.18977e-08
1.02547e-06
5.6599e-08
1.0258e-06
5.43518e-08
1.02773e-06
7.18183e-08
1.02882e-06
7.22819e-08
1.03109e-06
9.16378e-08
1.03343e-06
9.45869e-08
1.03724e-06
1.16607e-07
1.04178e-06
1.24442e-07
1.04827e-06
1.48741e-07
1.59334e-07
1.05601e-06
1.00051e-06
2.10071e-09
1.00079e-06
2.73437e-10
1.00191e-06
4.99783e-09
1.00273e-06
2.61497e-09
1.00453e-06
7.96037e-09
1.00532e-06
4.40561e-09
1.00783e-06
1.13774e-08
1.00837e-06
6.43044e-09
1.011e-06
1.4062e-08
1.01184e-06
9.78503e-09
1.01409e-06
1.63277e-08
1.01524e-06
1.39348e-08
1.01749e-06
2.05081e-08
1.01826e-06
1.74947e-08
1.02088e-06
2.64661e-08
1.02153e-06
2.32135e-08
1.02382e-06
3.24858e-08
1.02504e-06
3.18187e-08
1.02702e-06
4.11083e-08
1.02819e-06
4.07355e-08
1.03106e-06
5.37201e-08
1.03201e-06
5.34062e-08
1.03546e-06
6.83643e-08
1.03741e-06
7.03347e-08
1.04172e-06
8.73295e-08
1.04473e-06
9.158e-08
1.05098e-06
1.10358e-07
1.05653e-06
1.18884e-07
1.06511e-06
1.40164e-07
1.50578e-07
1.07387e-06
1.00048e-06
1.62335e-09
1.00067e-06
7.79714e-11
1.0018e-06
3.86949e-09
1.00249e-06
1.92898e-09
1.00433e-06
6.1199e-09
1.00515e-06
3.58516e-09
1.00765e-06
8.87816e-09
1.00842e-06
5.65884e-09
1.01106e-06
1.14236e-08
1.01217e-06
8.67053e-09
1.01453e-06
1.39715e-08
1.01601e-06
1.24516e-08
1.01842e-06
1.81032e-08
1.01968e-06
1.6229e-08
1.02249e-06
2.36543e-08
1.02379e-06
2.19203e-08
1.02643e-06
2.98391e-08
1.02832e-06
2.99288e-08
1.03091e-06
3.85239e-08
1.03292e-06
3.87265e-08
1.03637e-06
5.02703e-08
1.0386e-06
5.11745e-08
1.04277e-06
6.41934e-08
1.04598e-06
6.71271e-08
1.05131e-06
8.20013e-08
1.05597e-06
8.69163e-08
1.06307e-06
1.03256e-07
1.07036e-06
1.11598e-07
1.08023e-06
1.30289e-07
1.39997e-07
1.09081e-06
1.00048e-06
1.13876e-09
1.0006e-06
-4.18028e-11
1.00184e-06
2.63517e-09
1.00245e-06
1.31488e-09
1.00437e-06
4.20652e-09
1.00522e-06
2.73226e-09
1.00773e-06
6.36954e-09
1.00874e-06
4.64913e-09
1.01139e-06
8.77594e-09
1.01276e-06
7.29366e-09
1.01532e-06
1.1416e-08
1.017e-06
1.07681e-08
1.01974e-06
1.53634e-08
1.02135e-06
1.4623e-08
1.02449e-06
2.05138e-08
1.02626e-06
2.01449e-08
1.02943e-06
2.66673e-08
1.03173e-06
2.76314e-08
1.03517e-06
3.50889e-08
1.03766e-06
3.62354e-08
1.04198e-06
4.59445e-08
1.04503e-06
4.81251e-08
1.05014e-06
5.90864e-08
1.05426e-06
6.30029e-08
1.06075e-06
7.55135e-08
1.06642e-06
8.12445e-08
1.07467e-06
9.50102e-08
1.08302e-06
1.03246e-07
1.09404e-06
1.19266e-07
1.28809e-07
1.10523e-06
1.00047e-06
6.71754e-10
1.00062e-06
-1.99426e-10
1.00185e-06
1.40613e-09
1.00258e-06
5.88499e-10
1.00446e-06
2.33119e-09
1.00557e-06
1.62177e-09
1.00796e-06
3.97367e-09
1.00935e-06
3.26003e-09
1.01194e-06
6.18342e-09
1.01367e-06
5.56737e-09
1.01633e-06
8.7514e-09
1.01834e-06
8.75783e-09
1.02128e-06
1.24288e-08
1.02334e-06
1.25605e-08
1.02668e-06
1.71765e-08
1.02903e-06
1.7794e-08
1.03253e-06
2.31647e-08
1.03543e-06
2.47324e-08
1.03935e-06
3.11692e-08
1.04258e-06
3.30105e-08
1.04742e-06
4.11007e-08
1.05138e-06
4.41627e-08
1.05715e-06
5.33196e-08
1.06228e-06
5.78768e-08
1.06941e-06
6.83812e-08
1.07625e-06
7.43994e-08
1.08518e-06
8.60795e-08
1.0945e-06
9.3926e-08
1.1062e-06
1.0757e-07
1.16445e-07
1.11856e-06
1.00043e-06
2.41979e-10
1.0007e-06
-4.65267e-10
1.00195e-06
1.517e-10
1.00286e-06
-3.25016e-10
1.00473e-06
4.61664e-10
1.00611e-06
2.45655e-10
1.00845e-06
1.63464e-09
1.01017e-06
1.53764e-09
1.01276e-06
3.59509e-09
1.01479e-06
3.53425e-09
1.01761e-06
5.93623e-09
1.01991e-06
6.45475e-09
1.02306e-06
9.27458e-09
1.02554e-06
1.00811e-08
1.02909e-06
1.36255e-08
1.03195e-06
1.49343e-08
1.03581e-06
1.93119e-08
1.03921e-06
2.13264e-08
1.04364e-06
2.67464e-08
1.04748e-06
2.9165e-08
1.05282e-06
3.57581e-08
1.05759e-06
3.9399e-08
1.06392e-06
4.69916e-08
1.06989e-06
5.19051e-08
1.07763e-06
6.06435e-08
1.08535e-06
6.6679e-08
1.09491e-06
7.65173e-08
1.10494e-06
8.38897e-08
1.11724e-06
9.52779e-08
1.03731e-07
1.12995e-06
1.00041e-06
-1.66692e-10
1.00086e-06
-9.16121e-10
1.00214e-06
-1.12379e-09
1.00333e-06
-1.52421e-09
1.00522e-06
-1.42393e-09
1.00691e-06
-1.4413e-09
1.00922e-06
-6.82216e-10
1.01125e-06
-4.90213e-10
1.01388e-06
9.63312e-10
1.0162e-06
1.21833e-09
1.01916e-06
2.97348e-09
1.02179e-06
3.8303e-09
1.0251e-06
5.96278e-09
1.02801e-06
7.16941e-09
1.03172e-06
9.91658e-09
1.03508e-06
1.15735e-08
1.03921e-06
1.5179e-08
1.04314e-06
1.73969e-08
1.04794e-06
2.1946e-08
1.05241e-06
2.47018e-08
1.05813e-06
3.00317e-08
1.06361e-06
3.39161e-08
1.07038e-06
4.02263e-08
1.07713e-06
4.51565e-08
1.08531e-06
5.24575e-08
1.09376e-06
5.82366e-08
1.10378e-06
6.64927e-08
1.11438e-06
7.32908e-08
1.12694e-06
8.27148e-08
9.03414e-08
1.14033e-06
1.00038e-06
-5.47245e-10
1.00102e-06
-1.55589e-09
1.00239e-06
-2.49182e-09
1.00387e-06
-3.00395e-09
1.00585e-06
-3.40597e-09
1.00781e-06
-3.39795e-09
1.0102e-06
-3.07182e-09
1.0125e-06
-2.78939e-09
1.01524e-06
-1.77962e-09
1.01783e-06
-1.37159e-09
1.02097e-06
-1.717e-10
1.02392e-06
8.79067e-10
1.0274e-06
2.48304e-09
1.03072e-06
3.85472e-09
1.03462e-06
6.0202e-09
1.03841e-06
7.77843e-09
1.04284e-06
1.07541e-08
1.04721e-06
1.30217e-08
1.05237e-06
1.67876e-08
1.05738e-06
1.96874e-08
1.06345e-06
2.39681e-08
1.06955e-06
2.78114e-08
1.07669e-06
3.30894e-08
1.08404e-06
3.78053e-08
1.09262e-06
4.38771e-08
1.10163e-06
4.92263e-08
1.11203e-06
5.609e-08
1.1231e-06
6.22286e-08
1.1359e-06
6.99125e-08
7.69472e-08
1.14929e-06
1.00045e-06
-9.99854e-10
1.00141e-06
-2.51579e-09
1.00301e-06
-4.08816e-09
1.00485e-06
-4.84352e-09
1.007e-06
-5.55538e-09
1.00923e-06
-5.62948e-09
1.01172e-06
-5.5601e-09
1.01424e-06
-5.31273e-09
1.01712e-06
-4.65828e-09
1.01996e-06
-4.21445e-09
1.02322e-06
-3.42549e-09
1.02646e-06
-2.36391e-09
1.03008e-06
-1.14067e-09
1.03372e-06
2.192e-10
1.03779e-06
1.94423e-09
1.04196e-06
3.61731e-09
1.04665e-06
6.05988e-09
1.05142e-06
8.25383e-09
1.05687e-06
1.13382e-08
1.06236e-06
1.41917e-08
1.06872e-06
1.76085e-08
1.07534e-06
2.11942e-08
1.08279e-06
2.56359e-08
1.09065e-06
2.99475e-08
1.09956e-06
3.49678e-08
1.109e-06
3.9789e-08
1.11964e-06
4.54476e-08
1.13096e-06
5.09078e-08
1.14378e-06
5.7095e-08
6.30118e-08
1.15771e-06
1.0005e-06
-1.49732e-09
1.00185e-06
-3.8718e-09
1.00383e-06
-6.06906e-09
1.00607e-06
-7.07495e-09
1.00844e-06
-7.93377e-09
1.01091e-06
-8.09814e-09
1.01355e-06
-8.19275e-09
1.01629e-06
-8.06198e-09
1.01936e-06
-7.72677e-09
1.02248e-06
-7.33524e-09
1.02594e-06
-6.88257e-09
1.02946e-06
-5.88164e-09
1.03327e-06
-4.94695e-09
1.03726e-06
-3.7769e-09
1.04155e-06
-2.34472e-09
1.04603e-06
-8.59897e-10
1.05099e-06
1.10076e-09
1.05608e-06
3.15535e-09
1.0618e-06
5.61969e-09
1.06774e-06
8.25609e-09
1.07438e-06
1.09709e-08
1.08138e-06
1.41916e-08
1.08909e-06
1.79277e-08
1.09733e-06
2.17062e-08
1.10653e-06
2.57655e-08
1.11632e-06
3.00001e-08
1.12718e-06
3.45853e-08
1.13878e-06
3.93081e-08
1.15157e-06
4.43081e-08
4.94702e-08
1.16511e-06
1.00089e-06
-2.39043e-09
1.00289e-06
-5.87007e-09
1.00533e-06
-8.50433e-09
1.0079e-06
-9.64384e-09
1.01048e-06
-1.05225e-08
1.01317e-06
-1.07806e-08
1.01599e-06
-1.10181e-08
1.01901e-06
-1.10845e-08
1.0223e-06
-1.10077e-08
1.02569e-06
-1.07261e-08
1.02929e-06
-1.04897e-08
1.03302e-06
-9.61021e-09
1.03698e-06
-8.90336e-09
1.04119e-06
-7.98826e-09
1.04566e-06
-6.81134e-09
1.05035e-06
-5.55402e-09
1.05549e-06
-4.03936e-09
1.06086e-06
-2.21053e-09
1.06674e-06
-2.59042e-10
1.07303e-06
1.96547e-09
1.0799e-06
4.09357e-09
1.0872e-06
6.89675e-09
1.0951e-06
1.00215e-08
1.10363e-06
1.31813e-08
1.11302e-06
1.63745e-08
1.12306e-06
1.99614e-08
1.13402e-06
2.36221e-08
1.14578e-06
2.75522e-08
1.15863e-06
3.14589e-08
3.55004e-08
1.1726e-06
1.00183e-06
-4.21859e-09
1.00526e-06
-9.30075e-09
1.00852e-06
-1.17624e-08
1.01147e-06
-1.25927e-08
1.01426e-06
-1.33156e-08
1.01722e-06
-1.374e-08
1.02031e-06
-1.41114e-08
1.02354e-06
-1.43115e-08
1.02688e-06
-1.43483e-08
1.03028e-06
-1.41279e-08
1.03373e-06
-1.39364e-08
1.03731e-06
-1.31925e-08
1.04111e-06
-1.26989e-08
1.04515e-06
-1.20346e-08
1.04944e-06
-1.1104e-08
1.05396e-06
-1.00683e-08
1.05886e-06
-8.94106e-09
1.06407e-06
-7.42142e-09
1.06982e-06
-6.01181e-09
1.07602e-06
-4.23186e-09
1.08267e-06
-2.55392e-09
1.08984e-06
-2.69488e-10
1.09765e-06
2.21148e-09
1.10617e-06
4.65387e-09
1.11557e-06
6.98204e-09
1.1257e-06
9.82953e-09
1.13666e-06
1.26572e-08
1.14842e-06
1.57939e-08
1.16106e-06
1.88161e-08
2.19303e-08
1.17463e-06
1.00301e-06
-7.23236e-09
1.00687e-06
-1.31538e-08
1.00972e-06
-1.46124e-08
1.01189e-06
-1.47644e-08
1.01375e-06
-1.51757e-08
1.01548e-06
-1.5472e-08
1.01706e-06
-1.56888e-08
1.01846e-06
-1.57125e-08
1.01963e-06
-1.55182e-08
1.02064e-06
-1.51422e-08
1.0215e-06
-1.4789e-08
1.02251e-06
-1.42028e-08
1.02357e-06
-1.37647e-08
1.02469e-06
-1.31489e-08
1.02601e-06
-1.24238e-08
1.02765e-06
-1.17075e-08
1.02962e-06
-1.09124e-08
1.03197e-06
-9.77123e-09
1.03472e-06
-8.76092e-09
1.03814e-06
-7.65162e-09
1.04212e-06
-6.53971e-09
1.04686e-06
-5.01125e-09
1.0525e-06
-3.42326e-09
1.05901e-06
-1.85897e-09
1.0664e-06
-4.03314e-10
1.07497e-06
1.25079e-09
1.0847e-06
2.93071e-09
1.09571e-06
4.78242e-09
1.10794e-06
6.58754e-09
8.24079e-09
1.12163e-06
9.92768e-07
9.79614e-07
9.65001e-07
9.50237e-07
9.35061e-07
9.19589e-07
9.03901e-07
8.88188e-07
8.7267e-07
8.57528e-07
8.42739e-07
8.28536e-07
8.14771e-07
8.01622e-07
7.89199e-07
7.77491e-07
7.66579e-07
7.56807e-07
7.48047e-07
7.40395e-07
7.33855e-07
7.28844e-07
7.25421e-07
7.23562e-07
7.23158e-07
7.24409e-07
7.2734e-07
7.32122e-07
7.3871e-07
7.46951e-07
2.28505e-07
-1.25061e-07
3.20786e-07
-9.22812e-08
4.06672e-07
-8.58853e-08
4.72318e-07
-6.56463e-08
5.34371e-07
-6.20535e-08
5.87138e-07
-5.2767e-08
6.33837e-07
-4.66988e-08
6.9322e-07
-5.93826e-08
7.45525e-07
-5.23054e-08
-1.37081e-07
8.82606e-07
6.7214e-07
-1.8004e-07
7.23837e-07
-1.43978e-07
7.72066e-07
-1.34115e-07
8.05325e-07
-9.89048e-08
8.37835e-07
-9.45637e-08
8.7307e-07
-8.8002e-08
9.14155e-07
-8.77837e-08
9.46398e-07
-9.16257e-08
9.93205e-07
-9.91122e-08
-1.73322e-07
1.02945e-06
8.75244e-07
-1.8835e-07
8.90066e-07
-1.588e-07
9.00107e-07
-1.44155e-07
9.26502e-07
-1.253e-07
9.29244e-07
-9.73058e-08
9.53882e-07
-1.1264e-07
9.66016e-07
-9.99178e-08
1.01313e-06
-1.38741e-07
1.02965e-06
-1.15628e-07
-2.00487e-07
1.05681e-06
9.60721e-07
-1.83334e-07
9.62274e-07
-1.60354e-07
9.60762e-07
-1.42643e-07
9.72159e-07
-1.36698e-07
9.87061e-07
-1.12207e-07
9.95e-07
-1.20579e-07
1.0049e-06
-1.09821e-07
1.02279e-06
-1.5663e-07
1.04632e-06
-1.39156e-07
-2.01812e-07
1.04764e-06
9.99736e-07
-1.73881e-07
1.00135e-06
-1.61971e-07
9.94884e-07
-1.36174e-07
1.00001e-06
-1.41826e-07
1.00476e-06
-1.16953e-07
1.01601e-06
-1.31828e-07
1.02074e-06
-1.14555e-07
1.02802e-06
-1.63909e-07
1.0422e-06
-1.53331e-07
-2.0548e-07
1.04586e-06
1.02611e-06
-1.65157e-07
1.02108e-06
-1.56934e-07
1.02031e-06
-1.35405e-07
1.0204e-06
-1.41913e-07
1.02572e-06
-1.22275e-07
1.02961e-06
-1.35717e-07
1.03694e-06
-1.21892e-07
1.0365e-06
-1.63463e-07
1.04559e-06
-1.62427e-07
-2.01437e-07
1.04155e-06
1.0466e-06
-1.55748e-07
1.04292e-06
-1.53251e-07
1.03958e-06
-1.32063e-07
1.03731e-06
-1.39645e-07
1.03826e-06
-1.23229e-07
1.0408e-06
-1.38257e-07
1.0457e-06
-1.26788e-07
1.04246e-06
-1.60224e-07
1.04471e-06
-1.64679e-07
-1.97077e-07
1.04035e-06
1.06608e-06
-1.47967e-07
1.0588e-06
-1.45965e-07
1.05578e-06
-1.29048e-07
1.05217e-06
-1.36035e-07
1.05213e-06
-1.23186e-07
1.04999e-06
-1.36114e-07
1.0525e-06
-1.29295e-07
1.04733e-06
-1.55056e-07
1.04487e-06
-1.62217e-07
-1.9003e-07
1.03782e-06
1.08194e-06
-1.39095e-07
1.07465e-06
-1.38675e-07
1.06994e-06
-1.24338e-07
1.06446e-06
-1.30554e-07
1.06191e-06
-1.20632e-07
1.05807e-06
-1.32274e-07
1.05679e-06
-1.28016e-07
1.05064e-06
-1.48904e-07
1.04507e-06
-1.56648e-07
-1.81322e-07
1.03636e-06
1.09645e-06
-1.30316e-07
1.08764e-06
-1.29857e-07
1.08166e-06
-1.18358e-07
1.07487e-06
-1.23763e-07
1.07073e-06
-1.16493e-07
1.06452e-06
-1.26073e-07
1.06046e-06
-1.23952e-07
1.05295e-06
-1.4139e-07
1.04495e-06
-1.48649e-07
-1.70531e-07
1.03416e-06
1.1088e-06
-1.20549e-07
1.09927e-06
-1.20334e-07
1.09204e-06
-1.11126e-07
1.0839e-06
-1.15625e-07
1.07754e-06
-1.10133e-07
1.06994e-06
-1.18474e-07
1.06361e-06
-1.17619e-07
1.05457e-06
-1.3235e-07
1.04449e-06
-1.38573e-07
-1.58313e-07
1.03228e-06
1.11966e-06
-1.10262e-07
1.10923e-06
-1.09903e-07
1.10065e-06
-1.02547e-07
1.0913e-06
-1.06269e-07
1.08349e-06
-1.0232e-07
1.07437e-06
-1.09364e-07
1.0659e-06
-1.09142e-07
1.05531e-06
-1.21765e-07
1.04417e-06
-1.2743e-07
-1.4475e-07
1.03061e-06
1.12922e-06
-9.91516e-08
1.11806e-06
-9.87353e-08
1.10836e-06
-9.28505e-08
1.0979e-06
-9.58129e-08
1.0885e-06
-9.29171e-08
1.07812e-06
-9.89853e-08
1.06815e-06
-9.91744e-08
1.05623e-06
-1.09841e-07
1.04364e-06
-1.14844e-07
-1.29774e-07
1.02867e-06
1.13756e-06
-8.74182e-08
1.12564e-06
-8.68177e-08
1.1149e-06
-8.21075e-08
1.1035e-06
-8.4419e-08
1.09288e-06
-8.22942e-08
1.08122e-06
-8.73274e-08
1.06989e-06
-8.78391e-08
1.05682e-06
-9.67728e-08
1.04317e-06
-1.01192e-07
-1.13857e-07
1.02725e-06
1.14525e-06
-7.49524e-08
1.13267e-06
-7.42359e-08
1.12103e-06
-7.04689e-08
1.10873e-06
-7.21198e-08
1.09702e-06
-7.05864e-08
1.08437e-06
-7.46791e-08
1.07187e-06
-7.53392e-08
1.05768e-06
-8.25797e-08
1.04295e-06
-8.64671e-08
-9.69307e-08
1.02603e-06
1.15213e-06
-6.1967e-08
1.13891e-06
-6.10213e-08
1.1265e-06
-5.80613e-08
1.11345e-06
-5.90705e-08
1.10082e-06
-5.79497e-08
1.08715e-06
-6.10091e-08
1.07358e-06
-6.17725e-08
1.05845e-06
-6.74476e-08
1.04279e-06
-7.08116e-08
-7.9204e-08
1.02507e-06
1.15871e-06
-4.80822e-08
1.14469e-06
-4.69976e-08
1.13143e-06
-4.48077e-08
1.11751e-06
-4.51429e-08
1.10392e-06
-4.43587e-08
1.08921e-06
-4.63067e-08
1.07452e-06
-4.70748e-08
1.0582e-06
-5.11356e-08
1.04141e-06
-5.40128e-08
-6.02586e-08
1.02246e-06
1.15923e-06
-3.26821e-08
1.14372e-06
-3.14831e-08
1.12886e-06
-2.99479e-08
1.11336e-06
-2.96471e-08
1.09809e-06
-2.90816e-08
1.08172e-06
-2.99425e-08
1.06533e-06
-3.06841e-08
1.0474e-06
-3.32018e-08
1.02892e-06
-3.55382e-08
-3.96407e-08
1.0083e-06
1.1028e-06
-1.38529e-08
1.08458e-06
-1.32579e-08
1.06713e-06
-1.24981e-08
1.04969e-06
-1.22093e-08
1.03258e-06
-1.19761e-08
1.01493e-06
-1.22898e-08
9.97067e-07
-1.28212e-08
9.77817e-07
-1.39514e-08
9.57599e-07
-1.53208e-08
-1.7155e-08
9.35114e-07
7.33098e-07
7.1984e-07
7.07342e-07
6.95132e-07
6.83156e-07
6.70867e-07
6.58045e-07
6.44094e-07
6.28773e-07
6.11618e-07
1.33126e-07
-1.33126e-07
1.66045e-07
-3.29192e-08
1.41613e-07
2.44315e-08
1.542e-07
-1.25867e-08
8.65494e-08
6.76505e-08
-1.83648e-07
2.70198e-07
-4.72886e-07
2.89238e-07
-6.78294e-07
2.05408e-07
-8.24303e-07
1.46009e-07
-9.06509e-07
8.22057e-08
-9.35416e-07
2.89079e-08
-9.20267e-07
-1.51492e-08
-8.72268e-07
-4.79988e-08
-8.01115e-07
-7.11536e-08
-7.11624e-07
-8.94908e-08
-6.03879e-07
-1.07745e-07
-4.82257e-07
-1.21621e-07
-3.54488e-07
-1.2777e-07
-2.20068e-07
-1.3442e-07
-8.45657e-08
-1.35502e-07
3.792e-08
-1.22486e-07
1.47162e-07
-1.09242e-07
2.38348e-07
-9.11858e-08
3.11437e-07
-7.30884e-08
3.66812e-07
-5.5376e-08
4.06042e-07
-3.9229e-08
4.30898e-07
-2.48565e-08
4.44245e-07
-1.33465e-08
4.48908e-07
-4.66336e-09
4.47765e-07
1.14314e-09
4.42075e-07
5.69001e-09
4.32533e-07
9.54185e-09
4.18499e-07
1.40339e-08
4.00733e-07
1.77661e-08
3.79582e-07
2.11509e-08
3.579e-07
2.1682e-08
3.36588e-07
2.13125e-08
3.18872e-07
1.77156e-08
3.03122e-07
1.57505e-08
1.07757e-08
1.00626e-07
-2.33751e-07
1.4382e-07
-7.61138e-08
1.58688e-07
9.56356e-09
1.27864e-08
1.33315e-07
-2.43586e-07
3.24023e-07
-4.82333e-07
5.08944e-07
-6.51697e-07
4.58602e-07
-7.82168e-07
3.35879e-07
-8.70333e-07
2.34174e-07
-9.14308e-07
1.26181e-07
-9.12806e-07
2.74056e-08
-8.72849e-07
-5.51063e-08
-8.07255e-07
-1.13593e-07
-7.18866e-07
-1.59543e-07
-6.20168e-07
-1.88189e-07
-5.09539e-07
-2.18374e-07
-3.83853e-07
-2.47307e-07
-2.50409e-07
-2.61214e-07
-1.10672e-07
-2.74157e-07
2.30355e-08
-2.69209e-07
1.48538e-07
-2.47988e-07
2.59136e-07
-2.1984e-07
3.5344e-07
-1.8549e-07
4.32123e-07
-1.51771e-07
4.96198e-07
-1.19451e-07
5.47244e-07
-9.02756e-08
5.86226e-07
-6.38378e-08
6.1497e-07
-4.20907e-08
6.35226e-07
-2.49197e-08
6.49518e-07
-1.31484e-08
6.59424e-07
-4.21634e-09
6.66715e-07
2.25123e-09
6.71524e-07
9.22476e-09
6.75259e-07
1.4031e-08
6.76461e-07
1.99488e-08
6.76372e-07
2.1771e-08
6.72253e-07
2.5431e-08
6.66717e-07
2.32522e-08
6.57686e-07
2.47808e-08
2.05602e-08
3.40423e-08
-2.67794e-07
-4.86117e-09
-3.72103e-08
-2.52264e-08
2.99287e-08
-1.60403e-07
2.68492e-07
-3.28284e-07
4.91904e-07
-4.69777e-07
6.50437e-07
-5.67516e-07
5.56341e-07
-6.43241e-07
4.11605e-07
-6.96066e-07
2.86999e-07
-7.16498e-07
1.46613e-07
-7.00813e-07
1.1721e-08
-6.48476e-07
-1.07444e-07
-5.76687e-07
-1.85381e-07
-4.91597e-07
-2.44633e-07
-3.95273e-07
-2.84513e-07
-2.96089e-07
-3.17558e-07
-1.85164e-07
-3.58232e-07
-6.33347e-08
-3.83043e-07
5.74365e-08
-3.94928e-07
1.74536e-07
-3.86309e-07
2.81613e-07
-3.55065e-07
3.73071e-07
-3.11298e-07
4.48723e-07
-2.61141e-07
5.09984e-07
-2.13032e-07
5.59181e-07
-1.68648e-07
5.99079e-07
-1.30173e-07
6.31282e-07
-9.6041e-08
6.56354e-07
-6.71627e-08
6.75209e-07
-4.37746e-08
6.89746e-07
-2.76852e-08
7.01766e-07
-1.62366e-08
7.12799e-07
-8.781e-09
7.22313e-07
-2.89397e-10
7.31835e-07
4.50922e-09
7.39998e-07
1.17853e-08
7.48788e-07
1.29806e-08
7.56516e-07
1.77039e-08
7.62638e-07
1.71297e-08
7.67557e-07
1.98619e-08
2.04117e-08
-3.35654e-09
-2.64437e-07
-5.32537e-08
1.26868e-08
-1.05861e-07
8.2536e-08
-2.12802e-07
3.75433e-07
-3.12882e-07
5.91984e-07
-3.81308e-07
7.18863e-07
-4.1894e-07
5.93973e-07
-4.59525e-07
4.52189e-07
-4.88754e-07
3.16228e-07
-4.95953e-07
1.53811e-07
-4.69538e-07
-1.46931e-08
-4.14363e-07
-1.62619e-07
-3.37592e-07
-2.62152e-07
-2.5502e-07
-3.27205e-07
-1.67756e-07
-3.71777e-07
-7.46116e-08
-4.10703e-07
2.39814e-08
-4.56825e-07
1.27466e-07
-4.86528e-07
2.3029e-07
-4.97752e-07
3.26485e-07
-4.82504e-07
4.13043e-07
-4.41622e-07
4.85854e-07
-3.8411e-07
5.43881e-07
-3.19168e-07
5.88748e-07
-2.579e-07
6.22565e-07
-2.02465e-07
6.48105e-07
-1.55713e-07
6.68957e-07
-1.16893e-07
6.86291e-07
-8.44968e-08
6.99519e-07
-5.70029e-08
7.09072e-07
-3.72382e-08
7.16983e-07
-2.41477e-08
7.26096e-07
-1.78944e-08
7.35948e-07
-1.01414e-08
7.45822e-07
-5.36435e-09
7.5412e-07
3.48729e-09
7.60573e-07
6.52782e-09
7.67491e-07
1.07857e-08
7.72952e-07
1.16692e-08
7.80656e-07
1.21579e-08
1.48723e-08
-8.91384e-08
-1.75299e-07
-1.79897e-07
1.03445e-07
-1.71179e-07
7.38176e-08
-1.75934e-07
3.80188e-07
-1.79513e-07
5.95563e-07
-1.84515e-07
7.23865e-07
-1.95925e-07
6.05383e-07
-2.12695e-07
4.68959e-07
-2.23305e-07
3.26838e-07
-2.20125e-07
1.50631e-07
-1.91587e-07
-4.32316e-08
-1.41706e-07
-2.125e-07
-7.42243e-08
-3.29634e-07
-1.11627e-09
-4.00313e-07
7.48747e-08
-4.47768e-07
1.55589e-07
-4.91417e-07
2.37342e-07
-5.38578e-07
3.22283e-07
-5.71469e-07
4.03191e-07
-5.7866e-07
4.70989e-07
-5.50302e-07
5.25331e-07
-4.95964e-07
5.70806e-07
-4.29585e-07
6.0755e-07
-3.55912e-07
6.36051e-07
-2.86401e-07
6.5813e-07
-2.24543e-07
6.73939e-07
-1.71522e-07
6.8558e-07
-1.28534e-07
6.96188e-07
-9.51041e-08
7.06441e-07
-6.72567e-08
7.14207e-07
-4.50037e-08
7.193e-07
-2.92411e-08
7.24006e-07
-2.26006e-08
7.31643e-07
-1.77777e-08
7.41128e-07
-1.48499e-08
7.51546e-07
-6.9304e-09
7.58106e-07
-3.27024e-11
7.62567e-07
6.32562e-09
7.6443e-07
9.80557e-09
7.66197e-07
1.03909e-08
1.07869e-08
-1.61804e-07
-1.34945e-08
-1.65854e-07
1.07496e-07
-8.49616e-08
-7.07527e-09
-5.55967e-08
3.50823e-07
-2.53695e-08
5.65336e-07
1.55303e-08
6.82965e-07
4.45702e-08
5.76343e-07
6.03069e-08
4.53222e-07
7.74987e-08
3.09647e-07
1.00049e-07
1.28081e-07
1.30243e-07
-7.34257e-08
1.64091e-07
-2.46347e-07
2.04548e-07
-3.70091e-07
2.54167e-07
-4.49931e-07
3.11676e-07
-5.05277e-07
3.76398e-07
-5.5614e-07
4.44464e-07
-6.06644e-07
5.10097e-07
-6.37102e-07
5.66007e-07
-6.34571e-07
6.07019e-07
-5.91314e-07
6.28782e-07
-5.17727e-07
6.40018e-07
-4.4082e-07
6.49741e-07
-3.65636e-07
6.58745e-07
-2.95405e-07
6.68226e-07
-2.34024e-07
6.77953e-07
-1.8125e-07
6.86061e-07
-1.36641e-07
6.92899e-07
-1.01943e-07
7.01699e-07
-7.60568e-08
7.11055e-07
-5.43597e-08
7.19092e-07
-3.72777e-08
7.22857e-07
-2.63658e-08
7.27006e-07
-2.19267e-08
7.32292e-07
-2.01355e-08
7.41315e-07
-1.59534e-08
7.50061e-07
-8.77879e-09
7.55055e-07
1.33166e-09
7.57457e-07
7.40332e-09
7.54342e-07
1.35059e-08
1.14338e-08
-1.91351e-07
1.77856e-07
-1.28718e-07
4.48626e-08
-1.20283e-07
-1.55096e-08
9.81923e-08
1.32348e-07
2.16858e-07
4.4667e-07
3.01637e-07
5.98186e-07
3.40335e-07
5.37645e-07
3.67418e-07
4.2614e-07
4.00275e-07
2.76789e-07
4.28999e-07
9.93571e-08
4.50389e-07
-9.4815e-08
4.64863e-07
-2.60821e-07
4.77734e-07
-3.82963e-07
5.01932e-07
-4.7413e-07
5.39653e-07
-5.42998e-07
5.85147e-07
-6.01633e-07
6.31696e-07
-6.53193e-07
6.72698e-07
-6.78104e-07
6.98032e-07
-6.59905e-07
7.07886e-07
-6.01168e-07
7.05362e-07
-5.15203e-07
6.92591e-07
-4.2805e-07
6.79863e-07
-3.52907e-07
6.72552e-07
-2.88094e-07
6.70287e-07
-2.31759e-07
6.72923e-07
-1.83886e-07
6.79395e-07
-1.43114e-07
6.86494e-07
-1.09042e-07
6.95787e-07
-8.53494e-08
7.06657e-07
-6.52297e-08
7.19328e-07
-4.99482e-08
7.27647e-07
-3.46857e-08
7.32339e-07
-2.66187e-08
7.34261e-07
-2.2057e-08
7.37007e-07
-1.86993e-08
7.43342e-07
-1.51136e-08
7.48048e-07
-3.37485e-09
7.53382e-07
2.06931e-09
7.52865e-07
1.4023e-08
1.31287e-08
6.79799e-07
3.80663e-07
4.52626e-07
2.72036e-07
2.44229e-07
1.92887e-07
2.12866e-07
1.6371e-07
3.5565e-07
3.03886e-07
5.20744e-07
4.33093e-07
6.27645e-07
4.30744e-07
6.97353e-07
3.56432e-07
7.44231e-07
2.29911e-07
7.69787e-07
7.38009e-08
7.75917e-07
-1.00945e-07
7.7007e-07
-2.54974e-07
7.64251e-07
-3.77144e-07
7.71706e-07
-4.81584e-07
7.964e-07
-5.67692e-07
8.26212e-07
-6.31445e-07
8.41892e-07
-6.68873e-07
8.42209e-07
-6.78421e-07
8.31124e-07
-6.4882e-07
8.07892e-07
-5.77936e-07
7.81144e-07
-4.88456e-07
7.56518e-07
-4.03423e-07
7.36185e-07
-3.32574e-07
7.23621e-07
-2.7553e-07
7.18941e-07
-2.27078e-07
7.19541e-07
-1.84487e-07
7.24076e-07
-1.47648e-07
7.29998e-07
-1.14964e-07
7.38352e-07
-9.37042e-08
7.49006e-07
-7.58829e-08
7.62759e-07
-6.37018e-08
7.75408e-07
-4.73348e-08
7.83274e-07
-3.44846e-08
7.86442e-07
-2.52246e-08
7.8532e-07
-1.75779e-08
7.85572e-07
-1.53654e-08
7.87084e-07
-4.88648e-09
7.90588e-07
-1.43454e-09
7.95084e-07
9.5267e-09
1.03324e-08
1.00723e-06
4.02881e-07
9.60642e-07
3.18622e-07
8.52379e-07
3.0115e-07
7.12631e-07
3.03459e-07
6.60839e-07
3.55678e-07
7.10198e-07
3.83734e-07
7.87831e-07
3.5311e-07
8.62024e-07
2.8224e-07
9.19454e-07
1.72481e-07
9.54949e-07
3.83054e-08
9.67952e-07
-1.13947e-07
9.70367e-07
-2.5739e-07
9.73077e-07
-3.79854e-07
9.83627e-07
-4.92134e-07
9.97924e-07
-5.81989e-07
1.00336e-06
-6.36883e-07
9.86603e-07
-6.52115e-07
9.41194e-07
-6.33012e-07
8.84101e-07
-5.91727e-07
8.34912e-07
-5.28747e-07
7.96182e-07
-4.49726e-07
7.69118e-07
-3.76359e-07
7.53629e-07
-3.17085e-07
7.46101e-07
-2.68002e-07
7.44312e-07
-2.25289e-07
7.48223e-07
-1.88397e-07
7.56419e-07
-1.55844e-07
7.64055e-07
-1.22601e-07
7.68917e-07
-9.85658e-08
7.7351e-07
-8.04755e-08
7.80403e-07
-7.0595e-08
7.89296e-07
-5.62279e-08
7.96201e-07
-4.13898e-08
7.99381e-07
-2.84049e-08
8.00097e-07
-1.82938e-08
7.9897e-07
-1.42379e-08
7.99848e-07
-5.76458e-09
8.01089e-07
-2.67547e-09
8.03578e-07
7.03811e-09
6.34043e-09
1.08445e-06
3.75239e-07
1.07691e-06
3.26169e-07
1.05496e-06
3.23096e-07
1.03796e-06
3.20456e-07
1.034e-06
3.59644e-07
1.04874e-06
3.68995e-07
1.07912e-06
3.22723e-07
1.11966e-06
2.41704e-07
1.15319e-06
1.38955e-07
1.17268e-06
1.88142e-08
1.18554e-06
-1.26811e-07
1.1919e-06
-2.63753e-07
1.19126e-06
-3.79214e-07
1.1796e-06
-4.80468e-07
1.1577e-06
-5.60089e-07
1.11843e-06
-5.97614e-07
1.05964e-06
-5.9333e-07
9.88344e-07
-5.61712e-07
9.1275e-07
-5.16132e-07
8.531e-07
-4.69096e-07
8.19217e-07
-4.15843e-07
8.01784e-07
-3.58927e-07
7.92945e-07
-3.08246e-07
7.89328e-07
-2.64385e-07
7.86071e-07
-2.22032e-07
7.82949e-07
-1.85275e-07
7.85055e-07
-1.5795e-07
7.92907e-07
-1.30453e-07
7.99637e-07
-1.05296e-07
8.01077e-07
-8.1916e-08
8.00516e-07
-7.00332e-08
8.00772e-07
-5.6484e-08
8.02472e-07
-4.30905e-08
8.01655e-07
-2.75879e-08
7.99569e-07
-1.6207e-08
7.9955e-07
-1.42192e-08
8.02098e-07
-8.31253e-09
8.09103e-07
-9.68029e-09
8.16137e-07
3.69113e-12
3.43864e-09
1.07712e-06
3.45768e-07
1.09983e-06
3.03452e-07
1.12216e-06
3.00767e-07
1.13911e-06
3.03512e-07
1.17889e-06
3.19856e-07
1.22147e-06
3.26423e-07
1.26174e-06
2.82453e-07
1.30238e-06
2.01064e-07
1.33068e-06
1.10648e-07
1.34463e-06
4.86974e-09
1.34512e-06
-1.27307e-07
1.33261e-06
-2.51236e-07
1.30765e-06
-3.5426e-07
1.2675e-06
-4.40312e-07
1.20831e-06
-5.00903e-07
1.13544e-06
-5.24738e-07
1.05671e-06
-5.14607e-07
9.85463e-07
-4.90462e-07
9.29404e-07
-4.60074e-07