/*--------------------------------*- C++ -*----------------------------------*\
| =========                 |                                                 |
| \\      /  F ield         | OpenFOAM: The Open Source CFD Toolbox           |
|  \\    /   O peration     | Version:  2112                                  |
|   \\  /    A nd           | Website:  www.openfoam.com                      |
|    \\/     M anipulation  |                                                 |
\*---------------------------------------------------------------------------*/
FoamFile
{
    version     2.0;
    format      ascii;
    arch        "LSB;label=32;scalar=64";
    class       volScalarField;
    location    "0.19";
    object      nut;
}
// * * * * * * * * * * * * * * * * * * * * * * * * * * * * * * * * * * * * * //

dimensions      [0 2 -1 0 0 0 0];

internalField   nonuniform List<scalar> 
1880
(
3.53847e-11
4.79527e-12
3.34098e-13
2.15124e-14
1.04606e-13
3.83159e-14
4.61073e-14
1.55684e-14
3.03067e-14
4.56591e-19
3.44305e-14
2.66591e-13
5.60535e-14
1.13672e-13
4.75116e-13
1.12679e-12
9.21755e-13
6.66262e-13
3.32646e-13
3.9345e-13
6.89088e-13
5.45696e-13
6.1526e-12
1.75315e-12
6.08008e-11
7.05037e-12
3.14113e-10
5.5452e-11
3.75156e-10
1.88883e-08
4.9516e-09
5.74912e-09
1.58814e-09
1.23242e-10
1.34282e-11
3.85305e-11
3.16682e-11
1.21315e-11
1.12654e-11
2.11506e-12
1.62246e-12
3.62803e-11
1.99669e-11
4.93303e-12
4.34655e-11
2.23953e-11
6.61187e-11
2.15628e-11
4.78602e-12
2.32224e-13
3.23846e-12
1.36567e-10
9.15536e-11
6.11845e-10
7.59967e-10
1.70172e-09
4.96139e-09
1.71379e-08
1.69652e-08
3.53778e-08
1.81297e-09
2.27533e-09
9.29947e-10
4.74584e-10
5.44133e-10
1.16031e-09
1.91126e-09
7.75575e-09
1.65404e-09
1.36602e-09
3.16655e-10
4.38195e-09
1.03145e-10
4.85836e-10
1.5199e-10
4.10481e-10
2.39071e-11
2.62176e-13
2.20435e-09
1.16223e-10
6.50854e-09
4.46615e-09
4.88261e-09
1.58742e-08
6.03773e-09
2.15919e-08
2.45282e-08
1.98498e-08
4.10475e-08
5.07592e-08
1.22612e-12
3.42023e-11
9.57941e-10
4.59418e-10
1.7443e-10
2.67185e-09
3.48406e-10
7.27259e-09
3.16102e-10
2.21321e-09
3.85657e-10
1.16888e-08
1.1757e-09
1.91076e-08
2.79264e-09
6.9915e-10
1.51268e-09
3.51855e-09
4.29043e-09
8.00922e-09
9.16873e-09
9.79633e-09
1.11353e-08
1.05449e-08
1.26732e-08
1.81184e-08
2.32641e-08
2.92732e-08
3.30895e-08
3.80327e-08
4.10155e-11
5.17458e-10
3.23803e-10
7.43612e-10
6.78441e-10
1.69176e-09
2.42222e-10
5.18816e-09
1.62794e-10
1.10225e-09
1.64159e-10
5.10568e-09
1.73526e-10
1.12319e-08
3.66618e-10
2.04519e-08
6.6982e-09
5.1879e-09
1.09531e-08
1.04911e-08
1.29979e-08
1.16914e-08
1.03862e-08
1.4201e-08
9.97306e-09
1.82788e-08
1.69029e-08
1.99207e-08
2.68985e-08
3.2849e-08
2.61579e-13
1.00789e-11
9.28946e-10
4.03351e-11
5.8098e-11
3.58618e-09
1.03238e-09
4.04826e-09
2.11585e-10
2.98817e-09
5.67648e-10
4.984e-09
3.24242e-10
4.88123e-09
6.62342e-11
3.435e-09
3.1984e-09
5.15659e-09
5.26453e-09
7.28908e-09
7.21518e-09
7.0779e-09
8.6138e-09
9.75862e-09
1.08814e-08
1.50983e-08
1.55544e-08
2.0461e-08
2.58223e-08
2.61706e-08
1.69968e-12
1.23434e-10
7.15223e-10
7.89716e-10
1.2127e-09
2.5715e-09
1.01712e-09
4.64137e-09
6.16167e-10
2.25827e-09
8.51693e-10
3.53066e-09
9.31566e-10
1.23816e-09
1.39954e-09
2.8995e-10
6.89877e-09
6.92077e-09
8.50751e-09
8.49166e-09
8.61201e-09
8.26595e-09
6.7485e-09
1.10133e-08
8.98241e-09
1.37458e-08
1.56162e-08
1.59455e-08
2.2024e-08
2.36083e-08
7.69335e-13
9.50559e-11
1.18033e-09
6.34571e-10
9.86491e-10
3.45072e-09
1.63305e-09
4.28172e-09
9.64786e-10
3.33859e-09
1.35365e-09
3.8817e-09
1.35689e-09
2.39013e-09
1.61994e-09
9.85175e-10
4.32126e-09
5.35916e-09
5.04526e-09
5.45885e-09
5.86338e-09
6.04313e-09
7.14539e-09
9.11787e-09
9.61342e-09
1.32166e-08
1.4681e-08
1.68376e-08
2.10119e-08
2.01884e-08
1.20599e-12
1.65258e-10
1.42104e-09
1.02425e-09
1.52777e-09
3.40413e-09
1.77758e-09
5.09617e-09
1.36468e-09
3.32263e-09
1.69019e-09
4.61699e-09
1.84634e-09
2.84446e-09
2.33716e-09
1.75938e-09
4.75605e-09
5.14997e-09
5.06774e-09
5.25341e-09
5.08968e-09
6.56886e-09
6.43838e-09
9.31283e-09
9.14756e-09
1.13462e-08
1.38577e-08
1.41662e-08
1.81402e-08
1.93677e-08
3.4217e-12
3.05047e-10
1.7026e-09
1.32416e-09
1.83582e-09
3.60147e-09
2.00857e-09
5.32792e-09
1.70083e-09
3.68287e-09
2.02549e-09
4.58968e-09
2.17768e-09
3.21953e-09
2.71474e-09
2.41905e-09
4.22731e-09
4.61271e-09
4.51341e-09
4.95318e-09
5.19696e-09
6.20442e-09
6.8545e-09
8.33158e-09
9.26834e-09
1.13084e-08
1.31304e-08
1.38234e-08
1.65439e-08
1.72097e-08
2.08268e-11
5.35964e-10
1.94532e-09
1.51044e-09
1.97215e-09
3.87218e-09
2.23954e-09
5.17598e-09
1.96221e-09
4.14479e-09
2.30019e-09
4.23011e-09
2.42945e-09
3.63908e-09
3.07658e-09
2.90635e-09
4.09255e-09
4.62834e-09
4.38063e-09
5.13983e-09
5.11205e-09
6.56172e-09
6.91889e-09
8.13488e-09
8.9061e-09
1.02444e-08
1.20941e-08
1.27649e-08
1.47524e-08
1.6583e-08
7.18426e-11
7.34783e-10
1.95839e-09
1.7448e-09
2.27218e-09
3.72808e-09
2.23945e-09
5.53907e-09
2.19786e-09
4.01183e-09
2.51968e-09
4.7197e-09
2.66638e-09
3.58027e-09
3.37715e-09
3.38242e-09
4.27665e-09
4.6139e-09
4.58444e-09
5.2627e-09
5.3528e-09
6.34301e-09
6.92082e-09
7.68371e-09
8.75821e-09
9.96817e-09
1.12557e-08
1.2122e-08
1.37777e-08
1.51352e-08
5.60355e-11
5.60452e-10
2.01624e-09
1.51252e-09
1.98957e-09
4.08996e-09
2.38564e-09
4.89031e-09
2.27647e-09
4.54794e-09
2.68785e-09
3.96517e-09
2.7595e-09
4.00992e-09
3.63753e-09
3.60537e-09
4.17343e-09
4.87435e-09
4.7471e-09
5.45587e-09
5.49832e-09
6.3689e-09
6.91455e-09
7.50246e-09
8.40774e-09
9.47221e-09
1.05069e-08
1.16027e-08
1.27586e-08
1.43958e-08
2.58977e-11
5.73994e-10
1.50579e-09
1.83348e-09
2.38947e-09
3.61415e-09
2.21438e-09
5.34016e-09
2.45208e-09
4.37976e-09
2.86627e-09
4.50135e-09
2.94331e-09
3.8641e-09
3.7882e-09
4.09826e-09
4.57565e-09
4.9214e-09
4.91753e-09
5.51917e-09
5.50415e-09
6.21555e-09
6.73165e-09
7.25786e-09
8.09735e-09
9.0998e-09
9.94561e-09
1.10448e-08
1.21645e-08
1.33649e-08
3.82438e-12
1.22445e-10
1.71679e-09
7.82059e-10
1.19169e-09
4.50232e-09
2.27247e-09
3.60807e-09
2.25835e-09
4.97908e-09
2.85432e-09
3.70102e-09
2.84886e-09
4.03651e-09
3.81991e-09
3.90226e-09
4.41897e-09
5.05405e-09
5.10772e-09
5.48406e-09
5.55787e-09
6.02112e-09
6.59304e-09
7.06301e-09
7.76573e-09
8.75767e-09
9.4665e-09
1.06185e-08
1.15349e-08
1.27304e-08
8.59924e-11
9.08242e-10
1.07317e-09
1.70771e-09
1.98006e-09
3.22213e-09
1.80506e-09
5.23667e-09
2.46901e-09
4.20097e-09
2.88753e-09
4.42921e-09
3.01417e-09
3.9429e-09
3.96376e-09
4.36018e-09
4.73444e-09
5.03523e-09
4.94014e-09
5.3227e-09
5.2106e-09
5.72878e-09
6.17527e-09
6.74564e-09
7.41604e-09
8.37332e-09
9.09775e-09
1.01512e-08
1.1092e-08
1.20739e-08
3.99366e-12
6.86203e-14
1.14388e-09
2.25006e-10
5.26308e-10
3.66778e-09
1.04213e-09
1.67054e-09
1.87534e-09
4.90846e-09
2.41455e-09
2.82751e-09
2.88941e-09
4.38417e-09
4.0272e-09
3.9795e-09
4.37621e-09
4.7506e-09
4.76116e-09
4.72919e-09
4.79854e-09
5.15696e-09
5.75152e-09
6.37536e-09
7.04857e-09
8.01382e-09
8.74935e-09
9.77684e-09
1.06674e-08
1.16089e-08
2.08624e-09
2.74219e-09
1.70264e-09
1.50074e-09
1.84123e-09
2.67154e-09
3.09062e-09
6.84683e-09
2.99173e-09
3.11061e-09
1.45586e-09
2.84111e-09
1.12432e-09
7.5061e-10
2.35222e-12
8.82779e-10
8.70981e-09
7.20359e-09
6.42952e-09
2.37932e-09
3.76586e-10
8.81474e-12
2.52252e-11
6.91668e-10
1.18561e-09
2.82563e-09
3.77545e-09
5.71397e-09
6.78799e-09
8.54998e-09
5.02882e-09
5.53026e-09
1.41085e-09
9.14418e-11
5.1663e-12
2.34486e-11
1.24186e-11
1.83298e-12
1.45352e-11
2.5071e-11
1.38766e-13
8.40278e-13
4.36271e-13
4.77707e-12
2.61413e-11
9.10877e-11
1.6319e-10
1.2396e-10
7.24349e-11
3.5934e-11
1.39687e-11
6.18382e-12
3.35263e-12
1.07871e-12
1.09403e-12
5.88084e-13
2.75155e-13
1.05257e-13
2.6229e-14
8.41945e-15
3.46414e-11
4.64401e-12
3.10291e-13
1.6343e-14
1.00151e-13
2.01755e-14
2.72613e-14
9.12004e-15
4.65423e-14
7.1792e-15
1.92277e-14
3.38575e-14
1.43999e-16
5.17245e-14
3.15912e-13
7.33157e-13
7.44645e-13
4.28727e-13
1.80796e-13
6.22767e-14
1.73372e-14
7.99732e-15
2.56128e-15
1.99604e-15
1.79649e-15
1.37493e-15
7.50799e-16
9.43674e-16
9.67778e-17
6.34061e-17
3.82665e-09
7.75308e-10
7.46724e-09
1.49144e-09
5.32157e-10
4.1706e-11
8.98676e-10
3.57914e-10
3.84021e-09
1.97174e-09
7.36507e-08
1.05963e-08
1.06524e-09
2.75304e-08
2.28861e-08
9.76925e-07
8.86361e-09
3.04578e-08
5.01698e-08
8.67875e-07
3.82316e-08
4.90643e-08
3.2321e-09
5.46207e-08
8.54047e-08
7.45979e-08
5.88467e-07
3.13934e-08
3.86262e-08
1.3084e-07
5.73761e-08
4.40636e-08
4.13486e-08
2.31297e-08
5.28346e-08
4.80671e-08
7.44373e-09
5.97441e-08
6.52962e-08
8.13853e-08
4.12175e-08
3.7855e-08
3.19725e-08
3.9289e-08
4.78208e-08
4.65179e-08
2.62268e-08
3.05248e-08
5.88149e-08
6.05154e-08
4.44805e-08
3.22689e-08
3.51578e-08
3.1427e-08
3.42882e-08
4.3937e-08
3.79889e-08
4.2475e-08
4.21178e-08
5.71431e-08
3.26435e-08
2.90978e-08
2.92718e-08
2.90387e-08
3.36061e-08
3.47538e-08
3.19836e-08
3.38648e-08
4.18637e-08
4.14013e-08
3.11844e-08
2.5519e-08
2.80707e-08
2.70804e-08
2.98603e-08
3.68407e-08
3.01142e-08
2.94463e-08
3.37767e-08
3.61835e-08
2.50649e-08
2.30474e-08
2.527e-08
2.5446e-08
2.66915e-08
2.93362e-08
2.88421e-08
2.83472e-08
2.90511e-08
2.90421e-08
2.2883e-08
2.09275e-08
2.29413e-08
2.37413e-08
2.48385e-08
2.82134e-08
2.54671e-08
2.45745e-08
2.62766e-08
2.51342e-08
1.94927e-08
1.91027e-08
2.12713e-08
2.20596e-08
2.23015e-08
2.4181e-08
2.38617e-08
2.26606e-08
2.24793e-08
2.17414e-08
1.8013e-08
1.7716e-08
1.93293e-08
2.05563e-08
2.09096e-08
2.22189e-08
2.12365e-08
2.03164e-08
2.03624e-08
1.89027e-08
1.60788e-08
1.63943e-08
1.80139e-08
1.91052e-08
1.92642e-08
1.99199e-08
1.95028e-08
1.84909e-08
1.80274e-08
1.68465e-08
1.504e-08
1.5385e-08
1.6634e-08
1.77476e-08
1.80401e-08
1.8305e-08
1.77108e-08
1.68289e-08
1.63052e-08
1.49356e-08
1.39157e-08
1.44668e-08
1.55925e-08
1.65334e-08
1.67975e-08
1.68464e-08
1.63213e-08
1.54566e-08
1.47614e-08
1.34825e-08
1.32061e-08
1.37591e-08
1.46736e-08
1.54182e-08
1.57476e-08
1.56982e-08
1.51404e-08
1.43294e-08
1.3552e-08
1.2272e-08
1.25422e-08
1.3098e-08
1.39139e-08
1.44795e-08
1.48002e-08
1.47037e-08
1.4237e-08
1.34353e-08
1.26445e-08
1.12789e-08
9.56282e-09
8.97908e-09
1.00351e-08
9.2195e-09
9.97121e-09
8.46849e-09
8.52019e-09
6.27559e-09
5.64401e-09
3.52353e-09
8.51902e-14
1.13236e-12
2.27774e-12
7.61259e-12
1.41803e-11
2.49172e-11
3.14265e-11
3.70702e-11
3.32844e-11
2.97827e-11
2.03947e-15
2.85496e-15
6.7454e-15
1.11372e-14
1.78458e-14
3.57833e-14
4.42875e-14
6.86806e-14
5.84121e-14
4.24376e-14
1.52275e-09
4.00267e-08
4.70769e-09
7.07075e-09
4.86102e-09
3.18968e-09
1.48717e-09
1.21628e-09
1.96946e-09
4.5801e-09
1.8345e-08
6.67343e-08
1.40378e-07
4.11014e-08
4.89176e-09
6.19802e-10
9.30366e-11
1.44796e-11
1.91516e-12
1.47833e-13
1.40429e-15
1.56113e-15
1.0982e-14
1.6086e-14
1.35441e-14
8.84251e-15
5.07669e-15
2.6024e-15
1.28731e-15
6.34946e-16
3.16377e-16
1.66621e-16
8.95221e-17
5.16457e-17
3.07144e-17
1.88127e-17
1.28561e-17
7.04463e-18
7.10069e-18
3.01593e-18
2.03225e-07
5.37056e-08
9.95574e-08
1.89909e-07
1.88789e-07
1.06087e-09
1.25418e-06
4.86776e-10
3.56085e-08
8.23665e-08
1.20007e-07
1.21406e-07
1.19886e-07
1.09151e-07
9.24461e-08
7.06946e-08
4.7148e-08
2.53412e-08
1.02281e-08
3.10906e-09
7.55592e-10
1.5259e-10
2.51526e-11
2.98914e-12
1.88746e-13
1.23577e-15
2.25013e-15
1.10794e-14
1.48865e-14
1.24493e-14
9.22888e-15
5.79123e-15
3.99635e-15
2.27448e-15
1.83401e-15
9.76554e-16
9.42883e-16
4.72324e-16
4.99147e-16
2.23404e-16
3.07641e-09
5.77862e-08
1.55841e-07
1.14512e-07
1.03844e-10
2.28889e-06
2.2826e-06
3.02659e-07
7.08263e-11
1.89948e-08
5.63417e-08
6.58316e-08
6.89506e-08
7.30401e-08
7.18059e-08
6.59738e-08
5.6652e-08
4.59685e-08
3.62513e-08
2.83768e-08
2.18628e-08
1.58911e-08
1.01845e-08
5.23359e-09
2.03477e-09
5.82471e-10
1.37254e-10
2.71226e-11
4.95542e-12
8.32943e-13
1.23008e-13
1.71117e-14
1.05125e-15
8.54561e-16
1.03735e-15
1.91051e-15
4.10763e-15
3.51024e-15
6.63416e-15
3.96373e-15
5.58582e-08
1.49475e-10
7.76196e-08
4.93308e-08
9.96056e-07
3.02076e-06
2.93464e-06
1.35201e-06
7.41484e-09
1.25739e-08
6.25492e-08
8.84232e-08
8.14825e-08
7.35301e-08
6.06747e-08
4.68002e-08
3.78411e-08
3.33497e-08
3.00323e-08
2.57295e-08
2.10087e-08
1.67685e-08
1.32673e-08
1.0408e-08
8.13338e-09
6.26542e-09
4.77342e-09
3.49408e-09
2.43944e-09
1.53926e-09
8.93409e-10
4.35999e-10
2.02544e-10
7.89976e-11
2.96218e-11
9.77246e-12
2.78177e-12
7.42771e-13
6.3666e-14
1.22865e-14
2.52335e-07
1.7369e-07
1.18254e-07
2.76146e-09
1.45549e-06
3.27409e-06
3.22775e-06
2.49639e-06
5.02333e-07
5.0094e-10
5.02471e-08
1.06452e-07
1.10178e-07
9.30361e-08
7.1321e-08
6.07839e-08
4.09489e-08
2.27302e-08
1.69712e-08
1.73043e-08
1.74222e-08
1.52116e-08
1.22949e-08
9.64488e-09
7.52309e-09
5.84548e-09
4.59541e-09
3.61766e-09
2.90385e-09
2.32188e-09
1.90514e-09
1.53433e-09
1.28036e-09
1.03619e-09
8.70661e-10
7.06981e-10
5.97224e-10
4.92011e-10
4.17351e-10
3.633e-10
7.58216e-09
4.82058e-08
1.62108e-09
2.65022e-09
7.05929e-07
2.68848e-06
2.93228e-06
2.59987e-06
1.26757e-06
9.88447e-09
1.64308e-08
6.87511e-08
9.21164e-08
7.30398e-08
2.25835e-09
2.16459e-08
2.59314e-08
2.10564e-10
1.68298e-08
9.42389e-09
9.784e-09
1.17866e-08
1.14198e-08
9.45428e-09
7.42648e-09
5.74771e-09
4.48821e-09
3.51113e-09
2.80224e-09
2.23404e-09
1.83239e-09
1.47719e-09
1.24138e-09
1.00774e-09
8.67299e-10
7.10714e-10
6.34214e-10
5.32376e-10
4.9859e-10
4.45765e-10
1.52359e-07
2.43236e-07
1.367e-07
1.1468e-07
7.5902e-08
2.59409e-06
2.84271e-06
2.85002e-06
2.03354e-06
7.77364e-08
8.80967e-09
7.05214e-08
1.01191e-07
8.64934e-08
6.15638e-08
2.21173e-07
2.50382e-07
5.24656e-08
1.5562e-08
1.64544e-09
7.76364e-09
7.56958e-09
8.23353e-09
8.15648e-09
7.04378e-09
5.60153e-09
4.38238e-09
3.41828e-09
2.72476e-09
2.16608e-09
1.77851e-09
1.43106e-09
1.20356e-09
9.73506e-10
8.35859e-10
6.78175e-10
6.02693e-10
4.97747e-10
4.66119e-10
4.10528e-10
1.48596e-08
2.87639e-07
1.99343e-08
3.80353e-08
2.25536e-08
6.35154e-07
2.32479e-06
2.50445e-06
1.92367e-06
1.32564e-08
2.91444e-08
9.02817e-08
9.92226e-08
7.33427e-08
8.26515e-08
5.25841e-08
2.59623e-08
5.20884e-12
5.32273e-12
3.58853e-11
5.44557e-11
8.85111e-11
4.07756e-09
6.84773e-09
6.34964e-09
5.36472e-09
4.35532e-09
3.44991e-09
2.74159e-09
2.17666e-09
1.77938e-09
1.43647e-09
1.20791e-09
9.78952e-10
8.36907e-10
6.74269e-10
5.93231e-10
4.81372e-10
4.45857e-10
3.85946e-10
1.12733e-06
4.27496e-08
9.87063e-08
8.26911e-08
2.16311e-08
8.65868e-07
1.88495e-06
2.35054e-06
1.2404e-06
8.19938e-08
1.30273e-07
1.10047e-07
7.66363e-08
2.17878e-08
3.63955e-08
2.83322e-08
2.27618e-09
4.0431e-09
2.3647e-08
3.64462e-08
1.66815e-08
4.55809e-09
7.38834e-10
1.43045e-10
1.16649e-09
3.51113e-09
3.85869e-09
3.38635e-09
2.82864e-09
2.27804e-09
1.85455e-09
1.46916e-09
1.213e-09
9.65167e-10
8.12623e-10
6.41504e-10
5.54616e-10
4.36257e-10
3.96198e-10
3.32671e-10
6.26843e-09
1.42265e-09
1.1753e-07
4.91399e-07
1.50844e-07
1.08305e-11
2.2245e-07
1.01678e-06
5.42304e-08
9.32526e-08
7.8605e-08
8.87051e-08
7.03594e-08
6.23269e-08
4.74575e-08
3.78559e-08
1.83016e-08
4.02134e-09
2.69342e-09
5.28549e-09
1.39778e-08
2.47903e-08
2.28287e-08
1.16363e-08
4.46959e-09
2.12447e-09
1.76967e-09
1.92357e-09
1.9678e-09
1.74274e-09
1.50323e-09
1.25415e-09
1.07813e-09
8.83562e-10
7.52921e-10
5.94079e-10
5.07399e-10
3.86873e-10
3.41503e-10
2.73391e-10
6.15114e-08
5.31612e-08
7.13073e-08
3.75226e-08
4.10398e-08
4.03436e-08
3.24436e-08
9.73775e-08
1.42282e-07
9.77066e-08
6.62844e-08
7.45132e-08
6.24232e-08
4.85106e-08
1.25552e-08
1.33879e-09
8.60996e-09
3.45741e-08
1.87063e-07
2.92148e-09
2.03076e-08
1.21512e-08
1.00417e-08
9.83908e-09
9.65218e-09
8.52642e-09
6.7589e-09
5.0577e-09
3.74442e-09
2.74948e-09
2.06517e-09
1.53829e-09
1.20724e-09
9.282e-10
7.57009e-10
5.75884e-10
4.76449e-10
3.43867e-10
2.888e-10
2.08024e-10
6.59039e-08
5.17546e-08
5.0314e-08
5.41561e-08
4.80426e-08
4.78243e-08
6.82191e-08
1.08781e-07
9.6455e-08
6.3646e-08
4.28726e-08
6.3175e-08
5.68943e-08
3.25099e-08
1.90321e-08
4.35189e-08
6.11688e-08
2.21894e-08
3.77312e-07
2.07914e-07
1.27276e-07
1.36548e-07
1.24665e-07
2.52169e-08
2.00379e-11
1.61938e-09
2.75111e-09
2.88213e-09
2.56393e-09
2.06558e-09
1.63967e-09
1.29392e-09
1.06449e-09
8.49653e-10
7.05094e-10
5.37517e-10
4.38313e-10
3.01345e-10
2.36384e-10
1.08752e-10
4.41483e-08
3.34435e-08
3.68781e-08
3.92031e-08
4.41275e-08
4.89728e-08
7.0116e-08
6.46689e-08
6.79531e-08
7.50217e-08
4.67237e-08
1.24315e-08
2.49153e-08
3.09002e-08
5.78033e-09
3.16229e-07
3.47722e-08
8.53174e-10
6.76097e-10
8.87844e-10
1.46127e-08
2.93429e-08
1.82521e-08
8.7542e-09
6.11196e-09
5.54158e-09
5.09739e-09
4.29988e-09
3.4068e-09
2.56881e-09
1.94102e-09
1.44788e-09
1.13415e-09
8.72694e-10
7.06188e-10
5.26799e-10
4.20214e-10
2.74055e-10
1.95497e-10
8.3311e-12
4.11671e-08
3.62074e-08
3.7383e-08
3.21458e-08
3.90201e-08
4.39326e-08
5.67218e-08
5.18412e-08
2.61037e-08
6.39607e-08
4.63298e-08
2.84362e-08
2.48434e-09
4.61752e-08
4.33476e-08
1.81355e-08
3.63462e-08
4.29311e-08
2.09804e-08
1.58324e-08
3.01238e-08
3.21722e-08
2.63626e-08
1.88958e-08
1.29154e-08
9.01094e-09
6.58727e-09
4.94507e-09
3.72022e-09
2.74985e-09
2.03318e-09
1.49464e-09
1.15356e-09
8.79454e-10
7.05616e-10
5.2255e-10
4.12229e-10
2.62464e-10
1.74136e-10
3.28609e-13
3.20085e-08
2.75683e-08
2.8034e-08
3.17127e-08
3.61816e-08
3.50999e-08
4.25561e-08
4.03857e-08
4.84321e-08
8.41375e-09
3.42259e-08
4.40866e-08
3.8071e-08
3.69092e-10
2.1562e-08
3.90581e-09
1.68029e-08
2.99132e-08
6.4503e-08
4.13343e-07
3.48143e-07
2.02171e-07
7.82192e-08
1.22128e-08
7.5898e-09
7.8853e-09
6.37312e-09
4.78312e-09
3.49754e-09
2.51459e-09
1.83996e-09
1.36767e-09
1.08076e-09
8.45744e-10
6.91153e-10
5.1896e-10
4.13734e-10
2.68687e-10
1.86974e-10
3.84387e-12
3.04789e-08
2.74496e-08
2.80792e-08
2.62454e-08
2.75415e-08
3.43589e-08
3.62045e-08
3.15184e-08
3.42989e-08
3.11842e-08
1.66603e-08
1.95275e-08
2.41013e-08
7.34277e-09
1.3611e-08
2.00004e-08
1.24354e-08
1.04058e-08
6.39963e-10
1.31202e-09
6.18941e-09
1.55114e-08
1.86835e-08
1.64378e-08
1.28745e-08
9.71493e-09
7.28982e-09
5.43715e-09
4.02e-09
2.91998e-09
2.13503e-09
1.55386e-09
1.19415e-09
9.06685e-10
7.29059e-10
5.44567e-10
4.37357e-10
2.96077e-10
2.26476e-10
7.8288e-11
2.34199e-08
2.17881e-08
2.1874e-08
2.45333e-08
2.62914e-08
2.51849e-08
3.11376e-08
3.25016e-08
2.40221e-08
3.11843e-08
3.28306e-08
2.36283e-08
1.31737e-08
2.48812e-08
3.13051e-08
1.90093e-08
1.3962e-08
2.98202e-08
1.74753e-09
9.39194e-09
1.65383e-08
1.75501e-08
1.51469e-08
1.21759e-08
9.7277e-09
7.7146e-09
5.92855e-09
4.40174e-09
3.1933e-09
2.30931e-09
1.73195e-09
1.33438e-09
1.09013e-09
8.72056e-10
7.25486e-10
5.58676e-10
4.61588e-10
3.31795e-10
2.74221e-10
1.91029e-10
2.28923e-08
2.0933e-08
2.03586e-08
1.97524e-08
2.0832e-08
2.42658e-08
2.27937e-08
2.37978e-08
2.73812e-08
2.24723e-08
2.0086e-08
2.76264e-08
2.70204e-08
1.6371e-08
1.2285e-08
2.13443e-08
2.42993e-08
2.13438e-08
1.74216e-08
1.48792e-08
1.45912e-08
1.40493e-08
1.29963e-08
1.14812e-08
9.69848e-09
7.86423e-09
6.19354e-09
4.73824e-09
3.56295e-09
2.63032e-09
1.98265e-09
1.49319e-09
1.19214e-09
9.30969e-10
7.69949e-10
5.95601e-10
5.00867e-10
3.76607e-10
3.27469e-10
2.57773e-10
1.82629e-08
1.70528e-08
1.68765e-08
1.74507e-08
1.81046e-08
1.86829e-08
2.05242e-08
2.06665e-08
1.92459e-08
2.18567e-08
2.26029e-08
1.83695e-08
1.89971e-08
2.19356e-08
2.14459e-08
1.83631e-08
1.33011e-08
1.03344e-08
1.38382e-08
1.6942e-08
1.70457e-08
1.5269e-08
1.2807e-08
1.03411e-08
8.19515e-09
6.3934e-09
4.9202e-09
3.72774e-09
2.82517e-09
2.15925e-09
1.72167e-09
1.38118e-09
1.15601e-09
9.34047e-10
7.89619e-10
6.25648e-10
5.38351e-10
4.21906e-10
3.79785e-10
3.16017e-10
1.69286e-08
1.5738e-08
1.49298e-08
1.46001e-08
1.5011e-08
1.60391e-08
1.58382e-08
1.66114e-08
1.77211e-08
1.68007e-08
1.67611e-08
1.8623e-08
1.87095e-08
1.62548e-08
1.42429e-08
1.60314e-08
1.75497e-08
1.63531e-08
1.40692e-08
1.23535e-08
1.10436e-08
1.00729e-08
9.22021e-09
8.21553e-09
7.08963e-09
5.8863e-09
4.76355e-09
3.74625e-09
2.93456e-09
2.27821e-09
1.82879e-09
1.45298e-09
1.21034e-09
9.72902e-10
8.27103e-10
6.62313e-10
5.7912e-10
4.66645e-10
4.29489e-10
3.68333e-10
1.41696e-08
1.32513e-08
1.26107e-08
1.24537e-08
1.25191e-08
1.31152e-08
1.36339e-08
1.38543e-08
1.41915e-08
1.52924e-08
1.60298e-08
1.54396e-08
1.56548e-08
1.68723e-08
1.65318e-08
1.52557e-08
1.39469e-08
1.26777e-08
1.21436e-08
1.23837e-08
1.21621e-08
1.11908e-08
9.79435e-09
8.23045e-09
6.73833e-09
5.39236e-09
4.2786e-09
3.36704e-09
2.68925e-09
2.157e-09
1.78487e-09
1.45252e-09
1.2269e-09
9.97279e-10
8.56476e-10
6.95244e-10
6.16357e-10
5.07256e-10
4.73946e-10
4.13868e-10
1.27041e-08
1.18122e-08
1.09422e-08
1.03893e-08
1.0316e-08
1.07185e-08
1.08921e-08
1.13606e-08
1.21956e-08
1.27058e-08
1.32714e-08
1.41104e-08
1.44608e-08
1.43669e-08
1.41342e-08
1.39104e-08
1.40579e-08
1.38498e-08
1.28393e-08
1.14096e-08
1.00628e-08
8.80007e-09
7.66909e-09
6.61451e-09
5.64888e-09
4.71927e-09
3.91912e-09
3.20088e-09
2.64223e-09
2.15491e-09
1.80211e-09
1.46958e-09
1.24815e-09
1.01672e-09
8.81219e-10
7.20184e-10
6.47478e-10
5.38486e-10
5.11675e-10
4.49531e-10
1.1163e-08
1.02261e-08
9.35237e-09
8.80864e-09
8.55159e-09
8.84704e-09
9.23969e-09
9.65897e-09
1.02756e-08
1.12357e-08
1.21547e-08
1.26598e-08
1.29188e-08
1.34599e-08
1.38333e-08
1.36178e-08
1.29587e-08
1.21755e-08
1.13593e-08
1.04891e-08
9.615e-09
8.67558e-09
7.63568e-09
6.53106e-09
5.48324e-09
4.50841e-09
3.69992e-09
2.99958e-09
2.46706e-09
1.9965e-09
1.65946e-09
1.3309e-09
1.12666e-09
8.88025e-10
7.75888e-10
6.02683e-10
5.59365e-10
4.33971e-10
4.43981e-10
3.65013e-10
1.01779e-08
9.22615e-09
8.29969e-09
7.6294e-09
7.25122e-09
7.35849e-09
7.55076e-09
7.69204e-09
7.9108e-09
8.06062e-09
7.97272e-09
7.64706e-09
7.2727e-09
6.86196e-09
6.48632e-09
6.15889e-09
5.87351e-09
5.6321e-09
5.2894e-09
4.72441e-09
3.95197e-09
3.12142e-09
2.35265e-09
1.68615e-09
1.15883e-09
7.41055e-10
4.60833e-10
2.51019e-10
1.38496e-10
6.16562e-11
3.09257e-11
1.13132e-11
6.63379e-12
2.12152e-12
2.18392e-12
8.84724e-13
1.68223e-12
9.82994e-13
2.39777e-12
1.86193e-12
2.80442e-09
2.15453e-09
1.7797e-09
1.58985e-09
1.46586e-09
1.44197e-09
1.33361e-09
1.02133e-09
6.73799e-10
3.86572e-10
1.65757e-10
4.21639e-11
4.99272e-12
1.48499e-12
5.00118e-12
8.52399e-12
7.28741e-12
3.9651e-12
1.95774e-12
1.17535e-12
8.12e-13
5.84555e-13
4.67068e-13
3.65851e-13
2.74336e-13
1.76955e-13
9.63324e-14
5.23582e-14
1.92941e-14
9.27853e-15
1.81976e-15
9.09533e-16
6.5713e-17
4.13806e-16
1.02019e-15
1.52875e-15
4.29466e-15
3.90555e-15
8.96835e-15
6.49582e-15
2.53607e-11
1.93367e-11
1.91384e-11
2.03789e-11
2.07497e-11
2.22014e-11
2.08501e-11
1.35645e-11
6.56029e-12
2.37885e-12
2.96126e-13
2.60511e-14
9.73807e-13
3.50254e-12
6.1762e-12
7.48755e-12
6.67336e-12
4.59805e-12
2.65326e-12
1.34816e-12
6.02912e-13
2.31772e-13
7.72468e-14
2.0457e-14
4.31033e-15
4.74855e-16
7.88368e-18
1.20714e-17
1.33295e-16
2.6656e-16
4.60048e-16
4.84394e-16
5.87958e-16
4.70084e-16
5.9085e-16
3.82054e-16
5.06479e-16
2.88769e-16
3.92932e-16
2.08267e-16
2.7426e-14
1.79046e-14
2.66282e-14
3.41262e-14
3.88635e-14
4.79981e-14
4.09386e-14
1.80642e-14
4.08199e-15
2.353e-16
3.99359e-15
3.72505e-14
9.78279e-14
1.40225e-13
1.42074e-13
1.05108e-13
5.48839e-14
2.02879e-14
5.4351e-15
9.7342e-16
6.96818e-17
5.72031e-19
2.55898e-17
9.0134e-17
1.44005e-16
1.64561e-16
1.56372e-16
1.33635e-16
1.06401e-16
8.16712e-17
6.00512e-17
4.38098e-17
3.16985e-17
2.30538e-17
1.68197e-17
1.19979e-17
9.99433e-18
5.8569e-18
6.54396e-18
2.94688e-18
)
;

boundaryField
{
    inlet
    {
        type            calculated;
        value           nonuniform List<scalar> 
20
(
1.38297e-34
4.81664e-33
3.30142e-33
1.58013e-36
7.14104e-36
1.71097e-34
3.15345e-34
6.05288e-34
9.18105e-34
1.28343e-33
1.65209e-33
1.80659e-33
1.50634e-33
7.36314e-34
2.7516e-34
2.40373e-35
3.01266e-36
4.00989e-33
4.99736e-33
1.38178e-34
)
;
    }
    outlet
    {
        type            calculated;
        value           nonuniform List<scalar> 
27
(
2.04823e-33
1.76694e-33
1.44028e-33
9.53165e-34
1.859e-34
4.85813e-36
2.16607e-40
1.41726e-36
9.79105e-35
7.59166e-34
1.33378e-33
1.6714e-33
1.95132e-33
2.19149e-33
2.38936e-33
2.467e-33
2.45587e-34
2.82828e-36
1.4634e-38
5.79319e-42
2.15663e-41
1.01185e-38
2.24917e-36
2.15293e-34
2.57136e-33
2.46614e-33
2.28097e-33
)
;
    }
    lowerWall
    {
        type            fixedValue;
        value           uniform 0;
    }
    upperWall
    {
        type            fixedValue;
        value           uniform 0;
    }
    defaultFaces
    {
        type            empty;
    }
}


// ************************************************************************* //
