/*--------------------------------*- C++ -*----------------------------------*\
| =========                 |                                                 |
| \\      /  F ield         | OpenFOAM: The Open Source CFD Toolbox           |
|  \\    /   O peration     | Version:  2112                                  |
|   \\  /    A nd           | Website:  www.openfoam.com                      |
|    \\/     M anipulation  |                                                 |
\*---------------------------------------------------------------------------*/
FoamFile
{
    version     2.0;
    format      ascii;
    arch        "LSB;label=32;scalar=64";
    class       volScalarField;
    location    "0.19";
    object      p;
}
// * * * * * * * * * * * * * * * * * * * * * * * * * * * * * * * * * * * * * //

dimensions      [0 2 -2 0 0 0 0];

internalField   nonuniform List<scalar> 
1880
(
0.00353851
0.00340092
0.00330683
0.00325899
0.00323377
0.00321056
0.0031879
0.00317161
0.00315324
0.00313412
0.003121
0.00311844
0.00310918
0.00310176
0.00309297
0.0030977
0.00310608
0.00312827
0.00315942
0.00320393
0.00325876
0.00332991
0.00341061
0.00351679
0.003637
0.00379433
0.00396849
0.00420742
0.00443439
0.00473967
0.00335732
0.0033249
0.00328212
0.00324523
0.00321891
0.00319483
0.0031736
0.00316228
0.00314698
0.00312677
0.00311132
0.00311064
0.00310191
0.00309309
0.003083
0.00308816
0.00309869
0.00311816
0.00315043
0.00318706
0.00324448
0.0033026
0.0033854
0.0034744
0.00358409
0.00372874
0.00385808
0.00409152
0.00420308
0.00451104
0.00332391
0.00330367
0.00327088
0.00323859
0.00321389
0.0031887
0.00316631
0.00315628
0.00314371
0.00312198
0.00310453
0.00310182
0.0030964
0.00308666
0.00307946
0.00308284
0.00309474
0.00310877
0.0031345
0.00316484
0.0032097
0.00326034
0.00332308
0.00339867
0.00348425
0.00358497
0.00369553
0.00380925
0.00391723
0.003983
0.00326589
0.00325594
0.00323627
0.00321455
0.00319687
0.0031741
0.00315107
0.00314197
0.00313189
0.00311104
0.00309262
0.00308903
0.00308416
0.00307323
0.00306486
0.00306569
0.00307571
0.003085
0.003105
0.00312651
0.00316263
0.00319996
0.00324782
0.00330568
0.00336027
0.00343621
0.00349265
0.0035627
0.00360446
0.00359709
0.00323709
0.00323129
0.00321699
0.00320016
0.00318632
0.00316491
0.00314136
0.00313196
0.00312281
0.00310175
0.0030824
0.00307678
0.00307198
0.00305883
0.00304985
0.00304671
0.00305478
0.00305743
0.00307123
0.0030836
0.00310849
0.00313303
0.00316475
0.00319982
0.00323362
0.0032726
0.00329717
0.00331825
0.0033081
0.00326271
0.00320995
0.00320562
0.00319402
0.00318044
0.00316994
0.00315081
0.0031279
0.00311841
0.00310944
0.00308849
0.0030685
0.00306164
0.00305553
0.00304064
0.00302901
0.00302264
0.00302573
0.00302384
0.00302888
0.00303453
0.00304617
0.00306043
0.00307385
0.00309139
0.00310228
0.00311141
0.0031099
0.00308679
0.00305111
0.00297162
0.00318954
0.00318639
0.00317667
0.00316527
0.00315688
0.00313921
0.0031167
0.00310682
0.00309744
0.00307594
0.00305502
0.00304637
0.00303859
0.00302111
0.00300694
0.00299637
0.00299525
0.00298715
0.00298496
0.00298175
0.00298241
0.00298436
0.0029824
0.00298216
0.0029728
0.00295847
0.00293046
0.00288265
0.0028171
0.00271643
0.00317326
0.0031706
0.00316176
0.00315141
0.00314402
0.00312709
0.0031048
0.00309451
0.00308442
0.00306208
0.00303996
0.00302965
0.00301966
0.00299977
0.0029821
0.00296794
0.00296123
0.00294832
0.00293772
0.00292741
0.00291666
0.00290755
0.00289212
0.00287413
0.00285028
0.00281241
0.00276731
0.00269769
0.00261047
0.00249493
0.00316064
0.0031582
0.00314975
0.0031399
0.00313294
0.00311625
0.00309384
0.00308295
0.00307196
0.00304848
0.00302496
0.00301277
0.00300045
0.00297778
0.00295663
0.00293851
0.0029267
0.00290842
0.00289047
0.00287267
0.00285176
0.00283244
0.00280416
0.0027727
0.00273392
0.00268008
0.00261841
0.00253312
0.00242951
0.0023022
0.00315146
0.00314904
0.00314063
0.00313078
0.00312372
0.00310676
0.00308384
0.00307209
0.00305999
0.00303512
0.0030099
0.00299567
0.0029808
0.00295539
0.0029305
0.00290872
0.00289169
0.00286849
0.00284358
0.0028185
0.00278913
0.00275952
0.00272177
0.00267711
0.00262714
0.00255988
0.00248441
0.00238844
0.00227148
0.00213602
0.00314568
0.00314311
0.00313442
0.00312414
0.00311651
0.00309881
0.00307498
0.00306207
0.00304868
0.00302222
0.00299513
0.00297875
0.0029613
0.0029331
0.00290452
0.00287911
0.00285718
0.00282925
0.00279797
0.00276635
0.00272922
0.00269127
0.00264451
0.00259002
0.00252969
0.0024523
0.00236593
0.0022611
0.00213565
0.00199382
0.00314337
0.00314052
0.00313128
0.00312019
0.0031116
0.00309277
0.00306771
0.00305344
0.00303862
0.00301042
0.00298129
0.00296265
0.00294259
0.00291161
0.00287943
0.00285057
0.00282406
0.00279159
0.00275476
0.00271691
0.00267361
0.00262785
0.00257401
0.00251104
0.00244216
0.00235724
0.00226189
0.002151
0.00201949
0.00187304
0.00314482
0.00314142
0.00313117
0.00311868
0.00310849
0.00308792
0.00306123
0.00304541
0.00302906
0.002999
0.00296778
0.00294691
0.00292431
0.00289061
0.00285496
0.00282284
0.00279212
0.00275556
0.00271384
0.00267073
0.00262205
0.00257004
0.00251003
0.00244059
0.00236469
0.00227395
0.00217213
0.00205625
0.00192121
0.00177187
0.0031508
0.00314681
0.00313537
0.00312124
0.00310916
0.00308658
0.00305805
0.00304058
0.00302253
0.00299031
0.00295664
0.00293335
0.00290816
0.00287165
0.00283265
0.00279734
0.00276279
0.00272242
0.00267654
0.00262876
0.00257571
0.00251835
0.00245331
0.00237878
0.00229726
0.00220225
0.00209563
0.00197622
0.00183918
0.001688
0.00316121
0.00315569
0.00314177
0.0031246
0.00310936
0.00308397
0.00305341
0.0030343
0.00301443
0.00298
0.00294429
0.00291898
0.00289153
0.00285257
0.00281055
0.00277244
0.00273452
0.00269096
0.00264174
0.00259032
0.00253384
0.00247244
0.00240349
0.00232525
0.00223947
0.00214138
0.00203156
0.00190967
0.00177162
0.00161978
0.00318066
0.0031735
0.0031565
0.00313546
0.00311604
0.00308727
0.00305473
0.00303408
0.00301212
0.00297521
0.00293733
0.00291
0.00288012
0.00283824
0.00279305
0.00275192
0.00271059
0.00266382
0.00261165
0.0025571
0.00249794
0.00243335
0.00236139
0.00228042
0.00219151
0.00209124
0.00197936
0.00185582
0.00171753
0.00156564
0.00320147
0.00319
0.00316729
0.0031408
0.00311675
0.00308552
0.00305221
0.00303011
0.00300553
0.00296626
0.00292695
0.00289785
0.00286514
0.0028201
0.00277173
0.00272805
0.00268498
0.00263654
0.0025829
0.00252672
0.00246619
0.00239978
0.00232599
0.00224342
0.00215249
0.00205087
0.00193793
0.00181362
0.00167562
0.00152422
0.00325483
0.00323281
0.00319656
0.00315893
0.00312711
0.00309265
0.00305896
0.00303469
0.00300611
0.00296414
0.00292393
0.00289336
0.00285804
0.00281078
0.00276067
0.00271477
0.00266791
0.00261687
0.0025608
0.0025032
0.00244165
0.00237394
0.00229896
0.00221535
0.00212315
0.00202069
0.00190725
0.00178254
0.00164515
0.00149482
0.00328364
0.00324941
0.003203
0.00316033
0.00312635
0.00309216
0.00305885
0.00303193
0.0029997
0.002957
0.00291778
0.0028858
0.00284657
0.00279524
0.00274069
0.00269035
0.00264066
0.00258912
0.00253607
0.00248041
0.00242009
0.00235289
0.00227817
0.00219478
0.00210215
0.00199958
0.00188634
0.00176175
0.00162496
0.00147516
0.00346314
0.00332356
0.00322552
0.00317162
0.0031384
0.00310468
0.00306921
0.00303687
0.00300051
0.00295835
0.00292022
0.00288574
0.00284413
0.00279311
0.0027389
0.00268643
0.00263409
0.00258151
0.00252757
0.00247111
0.00241046
0.00234332
0.00226845
0.00218516
0.00209227
0.00198966
0.00187654
0.00175247
0.001617
0.00146972
0.00499065
0.00422163
0.00383703
0.00346938
0.00247791
0.00172238
0.00114479
0.000543274
-0.00115818
-0.00271998
0.00448712
0.00368217
0.00333466
0.00300075
0.00190119
0.00118243
0.000677433
-0.000123079
-0.00157214
-0.00343185
0.00398938
0.00350299
0.00307229
0.00269201
0.00182614
0.00118765
0.000480798
-0.000395135
-0.00181638
-0.00266769
0.00356184
0.0031137
0.00267102
0.00222715
0.00152746
0.000855744
0.000205292
-0.000671368
-0.00164901
-0.00265689
0.00319014
0.00283469
0.00241223
0.00199295
0.00137536
0.00077347
0.000129096
-0.000658668
-0.00151872
-0.00235565
0.00287004
0.00253751
0.00213856
0.00168347
0.00116927
0.000563568
-4.37349e-05
-0.000749472
-0.00146619
-0.00219566
0.00259506
0.00229815
0.00192116
0.00150294
0.00103622
0.000493859
-7.50574e-05
-0.000703214
-0.00133227
-0.00196168
0.0023576
0.00207657
0.00172492
0.00131588
0.000891132
0.000384971
-0.000149435
-0.000711036
-0.00125441
-0.00179094
0.00215373
0.00189359
0.00156267
0.0011863
0.000789835
0.000334953
-0.000152109
-0.000650712
-0.00113293
-0.00160557
0.00198048
0.00173367
0.00142501
0.00106951
0.000699676
0.000283062
-0.000165456
-0.000615453
-0.00104174
-0.00145407
0.0018333
0.00160169
0.00131125
0.00098302
0.000636325
0.000254041
-0.000150439
-0.000552386
-0.000936316
-0.001306
0.00171042
0.00148911
0.00121866
0.000911233
0.000585809
0.000234038
-0.000134869
-0.000501022
-0.000848032
-0.00118008
0.00160751
0.00139745
0.00114329
0.000856936
0.000551917
0.00022557
-0.000110524
-0.000443061
-0.000760696
-0.00106394
0.00152342
0.00132157
0.00108312
0.000814941
0.000528127
0.000224718
-8.47712e-05
-0.000391544
-0.000684787
-0.000964092
0.00145506
0.0012609
0.00103547
0.000783597
0.000513842
0.000230101
-5.74739e-05
-0.00034208
-0.000615674
-0.000876061
0.00140143
0.00121326
0.000999118
0.000761512
0.000506835
0.000239795
-3.01298e-05
-0.000297774
-0.000555834
-0.000801327
0.00136028
0.00117652
0.000971368
0.000745757
0.000504358
0.000251665
-4.18926e-06
-0.000258354
-0.000504376
-0.000738411
0.00133218
0.00115221
0.000953905
0.000737746
0.000507188
0.000265869
2.03912e-05
-0.000224428
-0.000461854
-0.000687579
0.00131245
0.00113501
0.000942137
0.000733831
0.000512204
0.000279941
4.29596e-05
-0.000194726
-0.000426669
-0.000646653
0.00130996
0.0011349
0.000944564
0.00073936
0.000521369
0.000292964
5.98265e-05
-0.000174655
-0.000404294
-0.000624305
-0.00650404
-0.00669001
-0.007034
-0.00819124
-0.0102892
-0.0123826
-0.012675
-0.0110088
-0.00779028
-0.00440394
-0.0014938
0.000606153
0.00185511
0.00245373
0.00258543
0.00246863
0.00223528
0.00197182
0.00171842
0.00148989
0.00128956
0.00111586
0.00096564
0.000836067
0.000724666
0.000628999
0.000546614
0.000475341
0.000413214
0.000358605
0.00031008
0.000266543
0.000227017
0.000190792
0.000157168
0.000125705
9.58789e-05
6.73873e-05
3.98832e-05
1.31276e-05
-0.00657114
-0.00671149
-0.00711082
-0.00853796
-0.0111494
-0.0135501
-0.0138234
-0.011947
-0.00851288
-0.00488125
-0.00184124
0.0003679
0.0016598
0.00230998
0.00247555
0.00238304
0.00216806
0.00191861
0.00167643
0.00145692
0.00126376
0.00109574
0.00095022
0.000824425
0.000715838
0.000622419
0.000541755
0.000471754
0.000410523
0.000356565
0.000308509
0.000265325
0.000226075
0.000190065
0.000156627
0.000125304
9.56089e-05
6.72059e-05
3.97589e-05
1.31246e-05
-0.00615493
-0.00676208
-0.00750571
-0.00951876
-0.0128526
-0.01567
-0.0159741
-0.0137463
-0.00984322
-0.00579922
-0.00247752
-0.000111182
0.00127778
0.00200168
0.0022296
0.00218216
0.00200636
0.0017911
0.00157818
0.00138276
0.00120869
0.00105536
0.000920878
0.000803313
0.000700946
0.000611674
0.000533855
0.000465837
0.000406036
0.000353111
0.000305835
0.000263243
0.000224474
0.000188848
0.000155746
0.000124702
9.52591e-05
6.70689e-05
3.98523e-05
1.32096e-05
-0.00640761
-0.00695893
-0.00783895
-0.010281
-0.0143577
-0.0176902
-0.0179729
-0.0156293
-0.0113187
-0.00684956
-0.00328841
-0.000757833
0.000746185
0.00155308
0.00186684
0.00189136
0.00177609
0.0016127
0.00144341
0.00128232
0.00113385
0.000999326
0.000878653
0.000771289
0.000676359
0.000592679
0.000519092
0.000454283
0.000396924
0.000345868
0.000300058
0.000258625
0.000220803
0.000185954
0.00015351
0.000123023
9.40562e-05
6.6278e-05
3.93761e-05
1.30788e-05
-0.00535074
-0.00703766
-0.00809991
-0.0109176
-0.0152167
-0.0187928
-0.0191957
-0.0169321
-0.0125818
-0.00780863
-0.00407541
-0.00146072
0.000122868
0.000985005
0.00138165
0.00150132
0.00147668
0.00138626
0.00127324
0.00115465
0.00103803
0.000927047
0.000823734
0.000729214
0.000643843
0.000567417
0.000499313
0.000438677
0.000384531
0.000335972
0.000292131
0.000252272
0.000215726
0.000181931
0.000150371
0.000120638
9.23246e-05
6.51216e-05
3.87199e-05
1.28791e-05
-0.00577788
-0.00668498
-0.00758544
-0.0103904
-0.0149407
-0.0185417
-0.0192589
-0.0173729
-0.0133602
-0.00850555
-0.00460374
-0.00193056
-0.000319134
0.000530012
0.000921486
0.00107177
0.00112134
0.00112363
0.00108589
0.00101728
0.000934054
0.00084722
0.000762009
0.000681212
0.000606294
0.000537856
0.000475845
0.000419889
0.000369385
0.000323706
0.000282182
0.000244206
0.000209214
0.000176721
0.000146267
0.000117487
9.00072e-05
6.35444e-05
3.78067e-05
1.25803e-05
-0.0046609
-0.00697485
-0.00730162
-0.0097375
-0.0132729
-0.0164945
-0.0176663
-0.0165324
-0.0131059
-0.00861598
-0.00482904
-0.00224387
-0.000641225
0.000232249
0.000630316
0.000789608
0.000856018
0.000890326
0.000895855
0.00087085
0.000822636
0.000761117
0.000694425
0.000627534
0.000563186
0.000502999
0.000447586
0.000396978
0.000350831
0.000308682
0.000270014
0.000234358
0.000201272
0.000170366
0.000141256
0.000113628
8.71567e-05
6.1592e-05
3.66711e-05
1.22059e-05
-0.00539823
-0.00530559
-0.00715949
-0.00897151
-0.011534
-0.0142068
-0.0153965
-0.014681
-0.0118566
-0.00800772
-0.00468185
-0.00239798
-0.000970232
-0.000112
0.000358581
0.000586325
0.00068133
0.000731039
0.000755103
0.000748279
0.000717005
0.000673486
0.00062313
0.000570461
0.000517651
0.000466553
0.000418189
0.000373005
0.000331072
0.000292305
0.000256445
0.000223179
0.000192135
0.000162978
0.000135378
0.00010907
8.37691e-05
5.92589e-05
3.53089e-05
1.17552e-05
-0.00447557
-0.00591061
-0.00752933
-0.00848206
-0.0100198
-0.0119693
-0.0129905
-0.0123927
-0.0100087
-0.00692917
-0.00429314
-0.00240025
-0.00118896
-0.000413048
6.01373e-05
0.000339847
0.00050382
0.000592717
0.000633592
0.000641682
0.000626622
0.000595036
0.000554639
0.000511393
0.000466997
0.000423501
0.00038191
0.000342797
0.000306244
0.000272075
0.000240032
0.000209874
0.000181375
0.000154331
0.000128525
0.000103764
7.98275e-05
5.65424e-05
3.37206e-05
1.12284e-05
-0.00384113
-0.00503244
-0.00622646
-0.00729172
-0.00845493
-0.00969054
-0.0103382
-0.00984919
-0.00807327
-0.00587938
-0.00393405
-0.00242601
-0.00137403
-0.000657393
-0.000190009
0.000104865
0.000296565
0.000425656
0.000499603
0.000524467
0.000517779
0.000500733
0.000479602
0.000451203
0.000417786
0.000383869
0.000349965
0.000316587
0.000284268
0.000253398
0.000224129
0.000196456
0.000170212
0.000145198
0.000121197
9.8041e-05
7.55485e-05
5.35806e-05
3.19847e-05
1.06527e-05
-0.00342386
-0.00438366
-0.00552424
-0.00644594
-0.00722062
-0.00801692
-0.00828576
-0.0077279
-0.006428
-0.0049616
-0.00356462
-0.00234306
-0.00142595
-0.000796005
-0.000370934
-7.88905e-05
0.000121148
0.000230423
0.000288213
0.000346363
0.000409046
0.000439561
0.000429653
0.000399533
0.000369665
0.000339242
0.000309705
0.000281755
0.000255119
0.00022955
0.000204859
0.000180923
0.000157697
0.000135145
0.000113215
9.18471e-05
7.09349e-05
5.03928e-05
3.0117e-05
1.00325e-05
-0.00303359
-0.00383567
-0.00474562
-0.00545498
-0.00602393
-0.00651311
-0.00665596
-0.00631143
-0.00537795
-0.00428242
-0.00322041
-0.00226755
-0.00150954
-0.000950625
-0.00055308
-0.000255494
-4.5113e-05
5.69455e-05
0.000115896
0.000180345
0.000236845
0.000274965
0.000301711
0.000315285
0.000312
0.000298937
0.000279698
0.000257469
0.000234282
0.000211173
0.000188608
0.000166782
0.000145663
0.000125155
0.000105126
8.54922e-05
6.61628e-05
4.70789e-05
2.81703e-05
9.38634e-06
-0.00273204
-0.00337282
-0.00410402
-0.00472078
-0.00517875
-0.00547951
-0.00553395
-0.00523801
-0.00456472
-0.00374136
-0.00293575
-0.00218779
-0.00154399
-0.00104017
-0.000663772
-0.000369876
-0.00014092
7.93481e-06
9.04921e-05
0.000146113
0.000211645
0.000257174
0.000273216
0.000272083
0.000262327
0.000248229
0.000232913
0.000217119
0.000200946
0.000184341
0.000167294
0.000149846
0.00013215
0.000114348
9.65536e-05
7.88333e-05
6.11964e-05
4.36426e-05
2.61547e-05
8.7166e-06
-0.00244989
-0.00297953
-0.00356557
-0.00406204
-0.00442063
-0.00464231
-0.00466175
-0.0044258
-0.0039434
-0.00331173
-0.00265846
-0.00205818
-0.00152911
-0.0010849
-0.000736714
-0.00047685
-0.000277789
-0.000166671
-0.000100413
-1.6369e-06
0.000115664
0.000197914
0.000231542
0.000237603
0.000233017
0.000223811
0.00021189
0.000198122
0.000183147
0.000167548
0.000151702
0.000135835
0.000119985
0.000104127
8.82197e-05
7.22585e-05
5.62449e-05
4.01972e-05
2.41281e-05
8.04375e-06
-0.00220514
-0.0026454
-0.0031172
-0.0035341
-0.00383366
-0.00399645
-0.00400398
-0.00382734
-0.00346157
-0.00297211
-0.00245581
-0.00196439
-0.00152291
-0.00113848
-0.000818217
-0.000547743
-0.000337542
-0.00021636
-0.000147481
-7.4271e-05
6.51469e-07
6.23675e-05
0.00010536
0.00013251
0.000147747
0.000154536
0.000155694
0.000152986
0.000147436
0.000139613
0.00012994
0.000118747
0.000106427
9.32993e-05
7.96252e-05
6.55735e-05
5.12518e-05
3.67383e-05
2.20975e-05
7.369e-06
-0.00197946
-0.00235289
-0.00274061
-0.00308054
-0.00333203
-0.00347954
-0.0034811
-0.00332896
-0.00305633
-0.00269
-0.0022714
-0.00184996
-0.00146775
-0.00114044
-0.000867078
-0.000648935
-0.000471391
-0.000317956
-0.000190242
-7.68666e-05
8.79142e-06
6.78538e-05
0.0001049
0.000126448
0.000137833
0.000142373
0.000142067
0.000138315
0.000132099
0.000124205
0.000115152
0.000105253
9.46351e-05
8.3365e-05
7.1512e-05
5.91639e-05
4.642e-05
3.33738e-05
2.01177e-05
6.71151e-06
-0.00178134
-0.00210382
-0.00242838
-0.00271919
-0.0029387
-0.00305854
-0.00306787
-0.00295858
-0.00273807
-0.00244154
-0.00210636
-0.00177025
-0.00145549
-0.00116519
-0.00090523
-0.000681273
-0.000504923
-0.000368377
-0.000264276
-0.000182142
-0.000109713
-4.9068e-05
-2.03098e-06
3.32038e-05
5.89705e-05
7.70785e-05
8.90508e-05
9.60608e-05
9.89965e-05
9.85016e-05
9.51629e-05
8.94916e-05
8.20412e-05
7.32447e-05
6.34437e-05
5.28704e-05
4.17098e-05
3.01067e-05
1.81985e-05
6.07391e-06
-0.00160472
-0.00188665
-0.00216515
-0.00241081
-0.00259634
-0.00271215
-0.00272825
-0.00264108
-0.00247342
-0.00224153
-0.00196758
-0.00168063
-0.00140349
-0.0011513
-0.000926412
-0.000740909
-0.000579856
-0.00043496
-0.000312775
-0.000207542
-0.000121731
-5.59414e-05
-7.80699e-06
2.65217e-05
5.04701e-05
6.65681e-05
7.66542e-05
8.21815e-05
8.42376e-05
8.36852e-05
8.1099e-05
7.68306e-05
7.11024e-05
6.40896e-05
5.59894e-05
4.69878e-05
3.72784e-05
2.70225e-05
1.63841e-05
5.47147e-06
-0.00145091
-0.00170274
-0.00194664
-0.00216346
-0.00233164
-0.00243118
-0.00245362
-0.00239135
-0.00225826
-0.002071
-0.00184519
-0.00160559
-0.00137603
-0.0011593
-0.000953842
-0.000767279
-0.000605969
-0.000473508
-0.000363334
-0.000274388
-0.000199317
-0.000136379
-8.50161e-05
-4.36893e-05
-1.08186e-05
1.48117e-05
3.42107e-05
4.81949e-05
5.74828e-05
6.26866e-05
6.44638e-05
6.34371e-05
6.02192e-05
5.52536e-05
4.89058e-05
4.14458e-05
3.31239e-05
2.41389e-05
1.46901e-05
4.90908e-06
-0.00131643
-0.00154471
-0.00176199
-0.00195351
-0.00210098
-0.00219655
-0.00222596
-0.00218179
-0.00207708
-0.00192662
-0.00174271
-0.00154193
-0.0013383
-0.00114172
-0.000960034
-0.000796236
-0.000653098
-0.000524655
-0.000411558
-0.000311969
-0.00022664
-0.000156836
-0.000101318
-5.79017e-05
-2.44453e-05
9.07014e-07
1.97034e-05
3.32585e-05
4.2606e-05
4.85471e-05
5.16325e-05
5.22435e-05
5.07279e-05
4.73822e-05
4.25242e-05
3.64241e-05
2.93489e-05
2.1516e-05
1.31492e-05
4.39789e-06
-0.00120066
-0.00141188
-0.00160905
-0.00178237
-0.00191779
-0.00200677
-0.00204001
-0.00201109
-0.00193049
-0.00180944
-0.0016554
-0.00148261
-0.00130883
-0.0011414
-0.000978215
-0.000823016
-0.000680396
-0.000554594
-0.0004466
-0.000353537
-0.00027483
-0.000208052
-0.000151839
-0.000104953
-6.62533e-05
-3.48409e-05
-9.9087e-06
9.23717e-06
2.3281e-05
3.28923e-05
3.88052e-05
4.16527e-05
4.19933e-05
4.02398e-05
3.6782e-05
3.19284e-05
2.59808e-05
1.91818e-05
1.17804e-05
3.94436e-06
-0.00110111
-0.00129972
-0.00148164
-0.00164039
-0.00176513
-0.00184964
-0.00188691
-0.00187102
-0.00180849
-0.00170929
-0.00158188
-0.00143709
-0.00128573
-0.00113299
-0.000982767
-0.00084055
-0.000709667
-0.000592078
-0.000485977
-0.000391039
-0.000307198
-0.000234997
-0.000174526
-0.000124662
-8.40655e-05
-5.14679e-05
-2.56638e-05
-5.57227e-06
9.687e-06
2.07959e-05
2.83228e-05
3.27466e-05
3.45421e-05
3.41063e-05
3.1838e-05
2.80568e-05
2.30835e-05
1.7178e-05
1.06079e-05
3.55685e-06
-0.0010172
-0.00120695
-0.00137824
-0.00152622
-0.00164258
-0.00172322
-0.00176288
-0.00175649
-0.0017094
-0.00163001
-0.00152376
-0.00139866
-0.00126539
-0.00113085
-0.00099665
-0.000864621
-0.000738801
-0.000622165
-0.000516037
-0.000421357
-0.000338157
-0.00026644
-0.000205182
-0.000153166
-0.000109494
-7.34233e-05
-4.41911e-05
-2.10611e-05
-3.25834e-06
9.94134e-06
1.9222e-05
2.51482e-05
2.82524e-05
2.89674e-05
2.77201e-05
2.48492e-05
2.06961e-05
1.55364e-05
9.65281e-06
3.24366e-06
-0.000947584
-0.00113119
-0.00129452
-0.00143408
-0.00154415
-0.0016216
-0.00166287
-0.00166466
-0.00163044
-0.00156614
-0.00147677
-0.00136996
-0.00125414
-0.00113338
-0.00100914
-0.000884477
-0.000763904
-0.000650615
-0.000546357
-0.000451605
-0.000366743
-0.00029224
-0.000227742
-0.000172758
-0.000126626
-8.85074e-05
-5.7469e-05
-3.26289e-05
-1.32181e-05
1.45096e-06
1.20527e-05
1.91552e-05
2.33007e-05
2.49376e-05
2.45102e-05
2.23681e-05
1.88687e-05
1.42951e-05
8.94272e-06
3.01998e-06
-0.000892038
-0.00107258
-0.00123089
-0.00136394
-0.00146861
-0.00154314
-0.00158518
-0.00159273
-0.00156844
-0.00151723
-0.00144333
-0.0013521
-0.00124944
-0.00113949
-0.00102437
-0.000906611
-0.000789996
-0.000677961
-0.000572944
-0.000476475
-0.000389604
-0.000312915
-0.000246279
-0.000189267
-0.000141121
-0.000101026
-6.81785e-05
-4.17211e-05
-2.09005e-05
-5.01021e-06
6.65888e-06
1.4684e-05
1.96358e-05
2.19756e-05
2.21702e-05
2.05755e-05
1.75635e-05
1.34123e-05
8.43962e-06
2.86996e-06
-0.000847898
-0.0010276
-0.001184
-0.00131358
-0.00141445
-0.00148606
-0.00152787
-0.00153993
-0.00152378
-0.00148246
-0.00142052
-0.00134306
-0.00125369
-0.00115431
-0.00104647
-0.000932937
-0.000817659
-0.000704759
-0.000597668
-0.000498644
-0.000409092
-0.000329731
-0.000260561
-0.000201212
-0.000151049
-0.000109258
-7.49462e-05
-4.73541e-05
-2.55371e-05
-8.81845e-06
3.56098e-06
1.21821e-05
1.76492e-05
2.04281e-05
2.1012e-05
1.97454e-05
1.70312e-05
1.31701e-05
8.37246e-06
2.91072e-06
-0.000828161
-0.00100816
-0.00116216
-0.001289
-0.00138785
-0.00145787
-0.00149919
-0.00151298
-0.00150038
-0.00146373
-0.00140756
-0.00133635
-0.00125264
-0.00115791
-0.00105391
-0.000943348
-0.000829856
-0.000717452
-0.000609831
-0.000509781
-0.000418969
-0.000338201
-0.000267754
-0.000207268
-0.000156123
-0.000113478
-7.8474e-05
-5.02708e-05
-2.79607e-05
-1.08134e-05
1.92549e-06
1.0851e-05
1.65793e-05
1.95771e-05
2.03556e-05
1.92467e-05
1.66813e-05
1.2918e-05
8.23553e-06
2.89358e-06
)
;

boundaryField
{
    inlet
    {
        type            zeroGradient;
    }
    outlet
    {
        type            fixedValue;
        value           uniform 0;
    }
    lowerWall
    {
        type            zeroGradient;
    }
    upperWall
    {
        type            zeroGradient;
    }
    defaultFaces
    {
        type            empty;
    }
}


// ************************************************************************* //
