/*--------------------------------*- C++ -*----------------------------------*\
| =========                 |                                                 |
| \\      /  F ield         | OpenFOAM: The Open Source CFD Toolbox           |
|  \\    /   O peration     | Version:  2112                                  |
|   \\  /    A nd           | Website:  www.openfoam.com                      |
|    \\/     M anipulation  |                                                 |
\*---------------------------------------------------------------------------*/
FoamFile
{
    version     2.0;
    format      ascii;
    arch        "LSB;label=32;scalar=64";
    class       volVectorField;
    location    "0.19";
    object      U;
}
// * * * * * * * * * * * * * * * * * * * * * * * * * * * * * * * * * * * * * //

dimensions      [0 1 -1 0 0 0 0];

internalField   nonuniform List<vector> 
1880
(
(0.0990479 0.000606304 0)
(0.0984159 0.00115829 0)
(0.0973739 0.0013008 0)
(0.0959057 0.00132817 0)
(0.0941115 0.00132518 0)
(0.0924426 0.0013473 0)
(0.0907848 0.00145093 0)
(0.0888747 0.00148658 0)
(0.0869684 0.00139362 0)
(0.0854067 0.00126647 0)
(0.083647 0.00133174 0)
(0.0818773 0.00139138 0)
(0.0798145 0.0014955 0)
(0.0781488 0.00136351 0)
(0.0759499 0.00131777 0)
(0.0745024 0.000952419 0)
(0.0725497 0.000869176 0)
(0.0717276 0.000506914 0)
(0.0701693 0.000600284 0)
(0.0696751 0.000401712 0)
(0.0681291 0.000574377 0)
(0.0676449 0.000651158 0)
(0.065668 0.000542809 0)
(0.0649842 0.00145853 0)
(0.0618572 0.0001375 0)
(0.0614089 0.00337855 0)
(0.054809 -0.000846701 0)
(0.0567926 0.00665143 0)
(0.0418106 -0.000408711 0)
(0.0469953 0.00908056 0)
(0.10002 0.00070431 0)
(0.100285 0.00141034 0)
(0.100676 0.00164734 0)
(0.101028 0.00175501 0)
(0.101091 0.00181369 0)
(0.101216 0.00186305 0)
(0.101292 0.00202404 0)
(0.101236 0.00215607 0)
(0.10097 0.00219784 0)
(0.101162 0.00205077 0)
(0.100701 0.00216928 0)
(0.100839 0.00209788 0)
(0.0998932 0.00248305 0)
(0.100663 0.00219722 0)
(0.0991635 0.00267947 0)
(0.100226 0.00193132 0)
(0.0979527 0.00234534 0)
(0.0992834 0.00137818 0)
(0.0966275 0.00188792 0)
(0.0979489 0.00116725 0)
(0.0950587 0.00191114 0)
(0.0960927 0.00129254 0)
(0.0932485 0.00268617 0)
(0.092945 0.00171133 0)
(0.0916082 0.00413856 0)
(0.0872658 0.00285714 0)
(0.0895845 0.00648158 0)
(0.0794451 0.00510647 0)
(0.0840725 0.0115171 0)
(0.0705327 0.00994955 0)
(0.100025 0.000252794 0)
(0.100179 0.000671076 0)
(0.100523 0.00095087 0)
(0.100911 0.0011532 0)
(0.101066 0.00127349 0)
(0.101328 0.00134526 0)
(0.101599 0.00148045 0)
(0.101702 0.00163322 0)
(0.101708 0.00172646 0)
(0.102102 0.00171037 0)
(0.102066 0.00181524 0)
(0.102283 0.00183119 0)
(0.101895 0.00210794 0)
(0.102631 0.00190943 0)
(0.102033 0.00234141 0)
(0.102789 0.00173581 0)
(0.101659 0.002358 0)
(0.102091 0.00152854 0)
(0.101075 0.00224676 0)
(0.10046 0.00191436 0)
(0.100331 0.00223724 0)
(0.0981824 0.00285579 0)
(0.0991854 0.00300388 0)
(0.0957756 0.00370233 0)
(0.0970641 0.00535301 0)
(0.0932831 0.00481957 0)
(0.0937986 0.00869679 0)
(0.0903412 0.00884969 0)
(0.0892739 0.0122976 0)
(0.0876649 0.0170356 0)
(0.100029 0.000231992 0)
(0.100074 0.000635012 0)
(0.100289 0.000938795 0)
(0.100581 0.00117193 0)
(0.100661 0.00132604 0)
(0.100917 0.00140328 0)
(0.101212 0.00152098 0)
(0.101318 0.00165425 0)
(0.101286 0.00180247 0)
(0.101707 0.00181278 0)
(0.101721 0.0019408 0)
(0.101978 0.00188591 0)
(0.10162 0.00218602 0)
(0.102364 0.0019854 0)
(0.101812 0.00256019 0)
(0.102665 0.00201627 0)
(0.101426 0.00294224 0)
(0.102387 0.00193362 0)
(0.100749 0.00330726 0)
(0.101493 0.00207839 0)
(0.0999341 0.00384647 0)
(0.09987 0.00276159 0)
(0.0991635 0.00479925 0)
(0.0976965 0.00417444 0)
(0.0980539 0.00643808 0)
(0.095572 0.00661175 0)
(0.0958206 0.00928045 0)
(0.0941008 0.0105255 0)
(0.0930688 0.0139999 0)
(0.0920239 0.016843 0)
(0.100031 0.000146403 0)
(0.100031 0.000413968 0)
(0.100191 0.000641734 0)
(0.100433 0.00084325 0)
(0.100467 0.000999675 0)
(0.100709 0.00109634 0)
(0.101012 0.00119985 0)
(0.101109 0.00132123 0)
(0.101048 0.00146762 0)
(0.101472 0.00153918 0)
(0.10152 0.00166144 0)
(0.101769 0.00166638 0)
(0.101434 0.00189102 0)
(0.102054 0.00182179 0)
(0.101678 0.00225565 0)
(0.102242 0.00205004 0)
(0.101562 0.00267372 0)
(0.101926 0.00240593 0)
(0.101337 0.0030031 0)
(0.101184 0.00312986 0)
(0.100801 0.00344066 0)
(0.100143 0.0041804 0)
(0.0998776 0.00474081 0)
(0.0990686 0.00513631 0)
(0.0985834 0.0075764 0)
(0.0979115 0.0065945 0)
(0.0972652 0.0111203 0)
(0.0966934 0.0106075 0)
(0.0962475 0.0149416 0)
(0.0960846 0.0167676 0)
(0.100032 0.000122145 0)
(0.100017 0.000353026 0)
(0.100148 0.000560731 0)
(0.100358 0.000754029 0)
(0.100354 0.000917516 0)
(0.100574 0.00103109 0)
(0.100871 0.00113486 0)
(0.10097 0.00125081 0)
(0.100891 0.00139864 0)
(0.101317 0.00150086 0)
(0.101366 0.00162624 0)
(0.101639 0.00165991 0)
(0.101293 0.00186063 0)
(0.101928 0.00185558 0)
(0.101537 0.00227687 0)
(0.10216 0.00216037 0)
(0.101468 0.00285694 0)
(0.101999 0.00255672 0)
(0.101398 0.00347566 0)
(0.101482 0.00320289 0)
(0.101221 0.00418595 0)
(0.100557 0.00433617 0)
(0.100935 0.00526641 0)
(0.0995933 0.00602554 0)
(0.100222 0.00722605 0)
(0.0991819 0.00824709 0)
(0.0990067 0.0105157 0)
(0.0992646 0.0114799 0)
(0.0985771 0.0148096 0)
(0.0990046 0.016707 0)
(0.100032 9.44793e-05 0)
(0.100004 0.00027238 0)
(0.100116 0.00043505 0)
(0.100306 0.00059276 0)
(0.100278 0.000734299 0)
(0.100482 0.000844145 0)
(0.100776 0.000938413 0)
(0.100878 0.00104893 0)
(0.100799 0.00118231 0)
(0.101223 0.00131003 0)
(0.10129 0.00142593 0)
(0.101561 0.00151168 0)
(0.10126 0.00166164 0)
(0.101845 0.00176568 0)
(0.101576 0.00206174 0)
(0.102077 0.00220321 0)
(0.101655 0.00262132 0)
(0.101989 0.00283602 0)
(0.101769 0.0032287 0)
(0.101741 0.00370237 0)
(0.101674 0.00404567 0)
(0.101351 0.00477179 0)
(0.101395 0.00555092 0)
(0.100991 0.00597921 0)
(0.101049 0.00803076 0)
(0.100783 0.00785852 0)
(0.100845 0.010988 0)
(0.100989 0.0113838 0)
(0.101077 0.0143511 0)
(0.101782 0.0159617 0)
(0.100032 7.41301e-05 0)
(0.0999994 0.00021511 0)
(0.100102 0.000346453 0)
(0.10028 0.000479917 0)
(0.100242 0.000606836 0)
(0.100437 0.000714976 0)
(0.10073 0.0008051 0)
(0.100832 0.0009143 0)
(0.100761 0.00103854 0)
(0.101186 0.00118319 0)
(0.101271 0.00129664 0)
(0.101545 0.00141633 0)
(0.101279 0.00154388 0)
(0.101857 0.0016982 0)
(0.101646 0.00195537 0)
(0.10214 0.00217593 0)
(0.101824 0.00256343 0)
(0.102148 0.0028567 0)
(0.102119 0.00326597 0)
(0.102029 0.00376432 0)
(0.102316 0.0041251 0)
(0.101807 0.00497541 0)
(0.102366 0.00540761 0)
(0.1018 0.00651842 0)
(0.102238 0.00746218 0)
(0.102198 0.00845488 0)
(0.102287 0.0103753 0)
(0.10285 0.0112532 0)
(0.103223 0.0137057 0)
(0.103781 0.0153379 0)
(0.100032 5.59565e-05 0)
(0.0999972 0.000162708 0)
(0.100096 0.000262002 0)
(0.100268 0.000368317 0)
(0.100225 0.00047443 0)
(0.100417 0.000571086 0)
(0.100713 0.000649167 0)
(0.100816 0.000751882 0)
(0.10076 0.000862617 0)
(0.101181 0.00101575 0)
(0.101296 0.00112108 0)
(0.101562 0.00127097 0)
(0.101353 0.00136974 0)
(0.101905 0.00158021 0)
(0.101789 0.00176543 0)
(0.102244 0.00210759 0)
(0.10206 0.00236105 0)
(0.102369 0.00285966 0)
(0.102462 0.00309506 0)
(0.102474 0.00378158 0)
(0.102762 0.00407969 0)
(0.102582 0.00485528 0)
(0.102962 0.00554135 0)
(0.102883 0.00618795 0)
(0.103216 0.00755426 0)
(0.103418 0.00809135 0)
(0.103812 0.00996029 0)
(0.104349 0.0108906 0)
(0.104972 0.0127927 0)
(0.105881 0.0142337 0)
(0.100032 3.84542e-05 0)
(0.0999969 0.000112272 0)
(0.100096 0.000180022 0)
(0.100267 0.000258553 0)
(0.100226 0.000343161 0)
(0.100418 0.000426336 0)
(0.100722 0.000492256 0)
(0.100827 0.000586842 0)
(0.100789 0.000685969 0)
(0.10121 0.000841518 0)
(0.101361 0.000944182 0)
(0.101619 0.00111203 0)
(0.101469 0.00119945 0)
(0.102001 0.00143304 0)
(0.101969 0.00158651 0)
(0.102401 0.00197228 0)
(0.102328 0.00217822 0)
(0.102623 0.00274515 0)
(0.102857 0.00292644 0)
(0.102872 0.00368723 0)
(0.103325 0.00389902 0)
(0.103185 0.00479701 0)
(0.103704 0.00522646 0)
(0.103766 0.00617548 0)
(0.104162 0.00701397 0)
(0.104586 0.00793143 0)
(0.105073 0.00926819 0)
(0.105686 0.0102971 0)
(0.106633 0.0117959 0)
(0.107405 0.0132646 0)
(0.100032 2.08538e-05 0)
(0.0999983 6.14599e-05 0)
(0.1001 9.7441e-05 0)
(0.100275 0.000146948 0)
(0.100241 0.000208156 0)
(0.100437 0.000274911 0)
(0.100754 0.000326349 0)
(0.100863 0.000409229 0)
(0.100848 0.000495008 0)
(0.101268 0.000646406 0)
(0.101459 0.000744475 0)
(0.101708 0.000921277 0)
(0.101619 0.000997809 0)
(0.102131 0.00124315 0)
(0.102183 0.00136504 0)
(0.102597 0.00177859 0)
(0.102614 0.0019392 0)
(0.102929 0.00254798 0)
(0.103227 0.0027035 0)
(0.103341 0.00345478 0)
(0.103798 0.00371599 0)
(0.103852 0.00447909 0)
(0.104334 0.00502251 0)
(0.104612 0.00576774 0)
(0.105045 0.00662549 0)
(0.105578 0.00744075 0)
(0.106214 0.00853964 0)
(0.106911 0.00957413 0)
(0.107892 0.0107684 0)
(0.108881 0.0119707 0)
(0.100032 2.33918e-06 0)
(0.100001 8.12405e-06 0)
(0.100109 1.12311e-05 0)
(0.10029 3.13702e-05 0)
(0.100268 6.99125e-05 0)
(0.100473 0.000121379 0)
(0.100806 0.000161554 0)
(0.100922 0.000232755 0)
(0.100931 0.00030664 0)
(0.101352 0.000450841 0)
(0.101585 0.000548082 0)
(0.101828 0.000726937 0)
(0.1018 0.000800843 0)
(0.102294 0.00104273 0)
(0.102425 0.00114823 0)
(0.102825 0.00155907 0)
(0.102926 0.00169609 0)
(0.103253 0.00230783 0)
(0.10362 0.00244408 0)
(0.103792 0.00318885 0)
(0.10429 0.00341939 0)
(0.104451 0.0041799 0)
(0.104958 0.00461218 0)
(0.105363 0.00540513 0)
(0.105845 0.00603846 0)
(0.106468 0.00690035 0)
(0.107212 0.00774096 0)
(0.107923 0.00873249 0)
(0.109047 0.00964416 0)
(0.110032 0.0107928 0)
(0.100032 -1.87558e-05 0)
(0.100007 -5.337e-05 0)
(0.100125 -8.84482e-05 0)
(0.10032 -0.000104117 0)
(0.100315 -9.56339e-05 0)
(0.100535 -6.64492e-05 0)
(0.100888 -4.41172e-05 0)
(0.101011 7.10217e-06 0)
(0.101046 6.17072e-05 0)
(0.10147 0.000189149 0)
(0.101746 0.000282268 0)
(0.101983 0.00045537 0)
(0.102012 0.000526682 0)
(0.102492 0.000754054 0)
(0.102695 0.000850175 0)
(0.103085 0.00124274 0)
(0.10325 0.00137723 0)
(0.103597 0.00196656 0)
(0.103999 0.00212204 0)
(0.104244 0.00281359 0)
(0.104742 0.00307841 0)
(0.105016 0.00375022 0)
(0.105526 0.00418499 0)
(0.106028 0.00489058 0)
(0.106563 0.0054394 0)
(0.107244 0.00623401 0)
(0.108044 0.00690751 0)
(0.10884 0.0077932 0)
(0.109951 0.00855679 0)
(0.111027 0.00946218 0)
(0.100032 -4.22037e-05 0)
(0.100013 -0.000119601 0)
(0.100143 -0.000190678 0)
(0.100354 -0.000237405 0)
(0.10037 -0.000250204 0)
(0.100609 -0.00023149 0)
(0.100984 -0.000216906 0)
(0.101118 -0.000179477 0)
(0.101178 -0.000136731 0)
(0.101611 -1.79055e-05 0)
(0.101933 7.90692e-05 0)
(0.102168 0.000246902 0)
(0.102254 0.000321947 0)
(0.102728 0.000532245 0)
(0.103001 0.000625674 0)
(0.10339 0.000986865 0)
(0.103614 0.00112117 0)
(0.103979 0.00166757 0)
(0.104405 0.00182933 0)
(0.104701 0.00246037 0)
(0.105197 0.00271679 0)
(0.105545 0.00332618 0)
(0.106061 0.00370158 0)
(0.10662 0.00435475 0)
(0.1072 0.00478816 0)
(0.107912 0.00551657 0)
(0.108765 0.00604022 0)
(0.109589 0.00682673 0)
(0.110724 0.0074056 0)
(0.11183 0.00820649 0)
(0.100032 -7.66003e-05 0)
(0.100028 -0.000219767 0)
(0.100184 -0.000346299 0)
(0.100423 -0.000441314 0)
(0.100475 -0.000488149 0)
(0.10074 -0.000488016 0)
(0.101137 -0.000488718 0)
(0.10128 -0.000477633 0)
(0.101371 -0.000456885 0)
(0.101815 -0.000356037 0)
(0.102171 -0.000263523 0)
(0.102405 -0.000114612 0)
(0.102544 -4.61255e-05 0)
(0.103017 0.000131326 0)
(0.103349 0.00021701 0)
(0.103731 0.000540288 0)
(0.103991 0.000689652 0)
(0.104359 0.00120109 0)
(0.104788 0.00140091 0)
(0.105118 0.0019845 0)
(0.105599 0.00226407 0)
(0.106002 0.00281131 0)
(0.106523 0.00316249 0)
(0.10712 0.0037413 0)
(0.107737 0.00410265 0)
(0.108476 0.00473583 0)
(0.109347 0.00515719 0)
(0.110221 0.0058068 0)
(0.11134 0.0062848 0)
(0.112473 0.00690745 0)
(0.100031 -0.000105918 0)
(0.100045 -0.00029622 0)
(0.100233 -0.00045268 0)
(0.100509 -0.000569527 0)
(0.100607 -0.000624934 0)
(0.100906 -0.000624591 0)
(0.101321 -0.000635798 0)
(0.101476 -0.000650148 0)
(0.101601 -0.000642877 0)
(0.102061 -0.000551471 0)
(0.102449 -0.000461859 0)
(0.102682 -0.000334335 0)
(0.102872 -0.000268307 0)
(0.103358 -0.000106887 0)
(0.10376 -3.7617e-06 0)
(0.104158 0.000304919 0)
(0.104463 0.000480369 0)
(0.104839 0.000945358 0)
(0.105259 0.00115165 0)
(0.105598 0.00165565 0)
(0.106044 0.00190893 0)
(0.106461 0.00236767 0)
(0.10697 0.00265718 0)
(0.10757 0.00314177 0)
(0.108208 0.00341986 0)
(0.108949 0.00394602 0)
(0.109833 0.00426509 0)
(0.110725 0.00479415 0)
(0.111837 0.00514846 0)
(0.112976 0.00564946 0)
(0.100029 -0.000199462 0)
(0.100089 -0.00053997 0)
(0.100336 -0.000784506 0)
(0.100668 -0.000948795 0)
(0.100818 -0.00101715 0)
(0.10114 -0.00101622 0)
(0.101561 -0.00104908 0)
(0.101739 -0.00110136 0)
(0.101912 -0.00110404 0)
(0.102382 -0.00100585 0)
(0.102777 -0.000910424 0)
(0.103015 -0.000808563 0)
(0.103277 -0.000758587 0)
(0.10381 -0.000634766 0)
(0.10428 -0.000538674 0)
(0.104675 -0.000268253 0)
(0.104967 -6.40839e-05 0)
(0.105289 0.000387067 0)
(0.105651 0.000650929 0)
(0.10596 0.00112986 0)
(0.106363 0.00139992 0)
(0.106782 0.00181157 0)
(0.107291 0.00207013 0)
(0.107889 0.00247712 0)
(0.10856 0.00269658 0)
(0.109298 0.00311803 0)
(0.110203 0.00335919 0)
(0.111097 0.00376225 0)
(0.112221 0.00402767 0)
(0.113334 0.00439586 0)
(0.100025 -0.000228987 0)
(0.100197 -0.000601478 0)
(0.100577 -0.000838164 0)
(0.10101 -0.000989189 0)
(0.10124 -0.00104679 0)
(0.101579 -0.00105862 0)
(0.101981 -0.00113067 0)
(0.102174 -0.00121534 0)
(0.102394 -0.00120425 0)
(0.102862 -0.00109957 0)
(0.10323 -0.00103694 0)
(0.103442 -0.00101313 0)
(0.103721 -0.000999188 0)
(0.104254 -0.00089712 0)
(0.104738 -0.0007459 0)
(0.105138 -0.000436129 0)
(0.105444 -0.000133931 0)
(0.105766 0.000316375 0)
(0.106078 0.000580096 0)
(0.106347 0.000957934 0)
(0.106681 0.00115465 0)
(0.107067 0.00144159 0)
(0.107549 0.0016091 0)
(0.108111 0.00188518 0)
(0.108805 0.00201965 0)
(0.109512 0.00231442 0)
(0.110451 0.00246803 0)
(0.11132 0.00274614 0)
(0.11248 0.0029192 0)
(0.113545 0.00317117 0)
(0.100021 -0.000688121 0)
(0.100303 -0.00136357 0)
(0.100733 -0.00157071 0)
(0.101134 -0.00164439 0)
(0.101285 -0.00165934 0)
(0.101491 -0.00167369 0)
(0.101731 -0.00178005 0)
(0.101758 -0.00188003 0)
(0.101784 -0.00182191 0)
(0.102008 -0.00166518 0)
(0.102122 -0.00159168 0)
(0.102124 -0.00159957 0)
(0.102182 -0.00162142 0)
(0.102478 -0.0015849 0)
(0.102654 -0.00145542 0)
(0.102865 -0.00114625 0)
(0.10293 -0.000746281 0)
(0.10324 -0.000269542 0)
(0.103431 7.72576e-05 0)
(0.103898 0.000434132 0)
(0.104231 0.000653762 0)
(0.10488 0.0008705 0)
(0.105374 0.00101037 0)
(0.106187 0.00117807 0)
(0.106874 0.00126289 0)
(0.107816 0.00143963 0)
(0.108714 0.00152426 0)
(0.109816 0.00168301 0)
(0.110914 0.00177576 0)
(0.112203 0.00191071 0)
(0.099048 -0.000601984 0)
(0.098437 -0.00114598 0)
(0.0974352 -0.00127911 0)
(0.0960252 -0.00129578 0)
(0.0943214 -0.00127966 0)
(0.0927593 -0.00129239 0)
(0.0912526 -0.00137475 0)
(0.0895017 -0.00140064 0)
(0.087832 -0.00127773 0)
(0.0864775 -0.00114402 0)
(0.0851091 -0.00114815 0)
(0.0836052 -0.00121463 0)
(0.0821263 -0.00122936 0)
(0.0807752 -0.00114547 0)
(0.0794447 -0.000973616 0)
(0.0783397 -0.000713502 0)
(0.077497 -0.000432551 0)
(0.0771574 -0.000178105 0)
(0.07701 6.61395e-06 0)
(0.077277 0.000150298 0)
(0.0775432 0.000236113 0)
(0.0781811 0.000306174 0)
(0.078681 0.000356531 0)
(0.0795656 0.000396077 0)
(0.080215 0.000436068 0)
(0.0812846 0.000482403 0)
(0.0820906 0.00050883 0)
(0.0833319 0.000558 0)
(0.084286 0.000579523 0)
(0.0857093 0.000607477 0)
(0.0235628 0.0113157 0)
(0.0590981 0.0189186 0)
(0.0473198 0.0143498 0)
(0.0869897 0.0398052 1.00581e-21)
(0.0554036 0.0271132 7.38593e-22)
(0.0877406 0.0337937 0)
(0.0692373 0.030371 3.61583e-22)
(0.118174 0.0527153 1.76869e-22)
(0.0872935 0.0437475 6.18285e-22)
(0.12308 0.037842 0)
(0.0722238 0.0190404 0)
(0.0864102 0.031967 0)
(0.0861426 0.0240044 0)
(0.090745 0.0372461 0)
(0.0994766 0.0514326 0)
(0.109362 0.0500989 1.81721e-22)
(0.101701 0.0281204 9.14679e-23)
(0.122968 0.0476028 -4.21866e-23)
(0.132997 0.0668493 -5.13904e-22)
(0.144045 0.066461 -5.28919e-22)
(0.0835147 0.0213141 0)
(0.0907647 0.024496 0)
(0.0950871 0.0332926 0)
(0.091589 0.0273753 0)
(0.103586 0.0385132 0)
(0.116963 0.0449109 -1.81743e-22)
(0.115572 0.04005 -9.14631e-23)
(0.117626 0.0272579 4.21853e-23)
(0.128862 0.0508071 2.846e-22)
(0.14658 0.0500241 5.29019e-22)
(0.0930526 0.0220665 -4.52282e-22)
(0.09355 0.0243401 0)
(0.100133 0.029799 -3.58663e-22)
(0.101988 0.0317871 -3.05915e-22)
(0.106647 0.0354991 -2.16348e-22)
(0.113898 0.0380937 0)
(0.121674 0.0382575 0)
(0.122621 0.0343083 1.08274e-22)
(0.12955 0.0457701 2.66055e-22)
(0.144063 0.0411668 4.34779e-22)
(0.0957547 0.0217655 4.52284e-22)
(0.0987503 0.0224266 0)
(0.10178 0.0288091 3.58663e-22)
(0.105515 0.0269983 3.05915e-22)
(0.109778 0.0325562 2.16349e-22)
(0.116646 0.0323804 0)
(0.121454 0.0347535 0)
(0.12524 0.027352 -1.08275e-22)
(0.131725 0.0351596 -2.66057e-22)
(0.144487 0.0336706 -4.34785e-22)
(0.0997679 0.0201281 0)
(0.101444 0.0220209 -3.32336e-22)
(0.10527 0.0259161 0)
(0.10913 0.0261691 -2.30984e-22)
(0.112549 0.029504 0)
(0.117816 0.0288214 0)
(0.123222 0.03158 0)
(0.128024 0.0291356 -1.1826e-22)
(0.132091 0.0317154 0)
(0.140331 0.0278103 0)
(0.102252 0.0195046 3.31758e-22)
(0.104525 0.0199827 6.32995e-22)
(0.107734 0.0239383 2.57261e-22)
(0.111103 0.0230266 2.30985e-22)
(0.114559 0.0268377 0)
(0.119449 0.0259422 -6.73982e-23)
(0.123821 0.0268082 0)
(0.128416 0.0236825 1.1826e-22)
(0.133237 0.0263181 0)
(0.140343 0.0227643 0)
(0.104977 0.0176773 -3.31759e-22)
(0.106805 0.0188849 -3.00659e-22)
(0.109837 0.0215446 -2.57261e-22)
(0.113171 0.0215114 0)
(0.116291 0.0234712 0)
(0.120692 0.0229063 6.73983e-23)
(0.125133 0.0244666 0)
(0.12896 0.0225885 0)
(0.132898 0.0224748 0)
(0.1383 0.0191689 0)
(0.106876 0.0165419 0)
(0.108814 0.017079 -2.49289e-22)
(0.111621 0.0193164 0)
(0.114677 0.0190396 -1.63526e-22)
(0.117737 0.021102 0)
(0.121387 0.0204073 0)
(0.125226 0.020708 2.50811e-23)
(0.129188 0.018764 1.03076e-22)
(0.132952 0.019136 0)
(0.136948 0.0158734 2.65398e-22)
(0.108696 0.0148005 0)
(0.110521 0.0156146 2.4929e-22)
(0.11307 0.0171943 0)
(0.115852 0.0172421 1.63526e-22)
(0.118752 0.0182918 0)
(0.122167 0.0178423 0)
(0.125817 0.0183501 -2.50812e-23)
(0.128997 0.0167856 -1.03077e-22)
(0.132234 0.0161505 0)
(0.135777 0.0134991 -2.65399e-22)
(0.110109 0.0134252 1.18691e-22)
(0.111861 0.013902 0)
(0.11424 0.0151739 0)
(0.116868 0.0151158 6.86583e-23)
(0.119593 0.01607 0)
(0.12255 0.0155659 0)
(0.125751 0.0156143 0)
(0.12884 0.0141023 -4.28783e-23)
(0.131723 0.0136371 0)
(0.134524 0.0111502 0)
(0.111313 0.0118126 -7.56259e-24)
(0.113028 0.0123347 0)
(0.115204 0.0132607 8.33285e-23)
(0.117584 0.0132851 -4.56999e-24)
(0.120158 0.0138146 0)
(0.1229 0.0134044 0)
(0.125816 0.013392 -9.69053e-24)
(0.128471 0.0121324 4.28784e-23)
(0.131042 0.0114119 -6.756e-23)
(0.133552 0.009377 -9.73257e-23)
(0.112305 0.0103685 -6.2632e-24)
(0.113925 0.0107219 0)
(0.115948 0.0114453 -4.7819e-24)
(0.118188 0.0114217 -3.49014e-24)
(0.120579 0.0118272 4.02491e-23)
(0.123058 0.0113955 -1.72667e-23)
(0.125658 0.0112596 1.97834e-24)
(0.128116 0.0100948 -3.39722e-23)
(0.13042 0.0094449 6.85562e-24)
(0.132575 0.0076455 9.3676e-24)
(0.113099 0.00886771 -1.04866e-22)
(0.114674 0.00918612 0)
(0.116553 0.00971997 -7.85467e-23)
(0.118607 0.00970625 -6.05984e-23)
(0.120849 0.00992909 -4.02492e-23)
(0.123141 0.00954444 3.47072e-23)
(0.125506 0.00934303 7.71221e-24)
(0.127719 0.00837102 3.39722e-23)
(0.129814 0.00769818 6.07045e-23)
(0.131767 0.00621413 8.79585e-23)
(0.113746 0.0074445 0)
(0.115247 0.0076772 0)
(0.117008 0.00807206 0)
(0.118934 0.00804001 0)
(0.121018 0.00817611 0)
(0.123136 0.00780035 -1.74405e-23)
(0.125295 0.00757311 0)
(0.127338 0.00671658 0)
(0.129262 0.00611213 0)
(0.131027 0.00485468 0)
(0.114247 0.00603769 0)
(0.115688 0.00621884 0)
(0.117361 0.00650339 0)
(0.119144 0.00646931 0)
(0.121106 0.00652005 0)
(0.123075 0.00618907 -9.42276e-24)
(0.125082 0.00594008 0)
(0.126968 0.00522874 0)
(0.128765 0.00467425 0)
(0.130394 0.00365174 0)
(0.114639 0.00467159 0)
(0.115999 0.00479431 0)
(0.117627 0.00498112 3.39614e-23)
(0.119268 0.00493984 0)
(0.121144 0.00493912 1.88483e-23)
(0.122946 0.00464425 9.42277e-24)
(0.124856 0.00439699 0)
(0.12658 0.0038077 -9.82573e-24)
(0.1283 0.00332959 0)
(0.129773 0.00251031 0)
(0.1149 0.00334729 0)
(0.116091 0.00342627 0)
(0.117736 0.00353369 -3.39615e-23)
(0.119139 0.00349174 0)
(0.120998 0.00344039 -1.88483e-23)
(0.122518 0.00319541 0)
(0.124414 0.0029517 0)
(0.125839 0.00248072 9.82576e-24)
(0.127538 0.00207091 0)
(0.128672 0.00144442 0)
(0.113494 0.00198304 -1.09792e-23)
(0.114284 0.00201587 -9.75031e-24)
(0.115829 0.00203244 -8.3203e-24)
(0.116728 0.00198868 0)
(0.118472 0.0019009 -4.81471e-24)
(0.119379 0.00172277 0)
(0.121152 0.00150615 -5.07382e-25)
(0.121835 0.00118128 0)
(0.123395 0.000855397 4.36217e-24)
(0.123589 0.00044195 6.89045e-24)
(0.086794 0.000587638 1.0978e-23)
(0.0875635 0.000549756 9.74915e-24)
(0.0887549 0.000490892 8.31925e-24)
(0.0894751 0.000421531 0)
(0.0906754 0.000323203 4.81404e-24)
(0.0911842 0.000213294 0)
(0.0921983 6.51617e-05 5.07302e-25)
(0.0921975 -9.26047e-05 0)
(0.0927643 -0.000277409 -4.3614e-24)
(0.0919426 -0.000452266 -6.88918e-24)
(0.00192714 -0.00109446 0)
(-0.00548886 -0.00149164 0)
(-0.0227966 0.00563172 0)
(-0.0479519 0.0103229 0)
(-0.0862281 0.0136174 0)
(-0.113522 0.00922557 0)
(-0.126223 0.00320474 0)
(-0.118609 -0.00288347 0)
(-0.100915 -0.00600928 0)
(-0.0781518 -0.00823311 0)
(-0.0506823 -0.00797182 0)
(-0.0262855 -0.00756833 0)
(-0.00270968 -0.00626747 0)
(0.0165461 -0.00487139 0)
(0.0322486 -0.00336815 0)
(0.0437995 -0.00198881 0)
(0.0518483 -0.000892347 0)
(0.0570538 -0.000112816 0)
(0.0601326 0.000376239 0)
(0.0617084 0.000632241 0)
(0.062284 0.000722028 0)
(0.0622486 0.000707788 0)
(0.0618813 0.000636313 0)
(0.0613642 0.000541043 0)
(0.0608108 0.000445315 0)
(0.0602817 0.000360542 0)
(0.0598094 0.000288797 0)
(0.0594023 0.000231096 0)
(0.0590582 0.000185344 0)
(0.0587742 0.000149667 0)
(0.0585339 0.000121238 0)
(0.0583441 9.88849e-05 0)
(0.0581759 8.06267e-05 0)
(0.0580549 6.56235e-05 0)
(0.0579362 5.3565e-05 0)
(0.0578658 4.23841e-05 0)
(0.0577841 3.47125e-05 0)
(0.0577494 2.5091e-05 0)
(0.0577019 2.12863e-05 0)
(0.057684 1.10389e-05 0)
(0.00307754 0.00331613 0)
(-0.00773373 0.0198651 0)
(-0.034265 0.0245689 0)
(-0.0678106 0.0342497 0)
(-0.101635 0.0324506 0)
(-0.124596 0.0219533 0)
(-0.124034 0.0017052 0)
(-0.116695 -0.0143055 0)
(-0.0918542 -0.0244576 0)
(-0.0703868 -0.028605 0)
(-0.0403038 -0.030023 0)
(-0.016802 -0.02703 0)
(0.00702808 -0.0242024 0)
(0.0266557 -0.020153 0)
(0.0434556 -0.0158668 0)
(0.0567668 -0.0117663 0)
(0.0670698 -0.0083005 0)
(0.074871 -0.00558225 0)
(0.0807133 -0.00355226 0)
(0.0850579 -0.00209337 0)
(0.0882614 -0.00108589 0)
(0.0905984 -0.000422285 0)
(0.0922764 -1.54256e-05 0)
(0.0934614 0.000210936 0)
(0.0942813 0.000312106 0)
(0.0948447 0.000340622 0)
(0.09522 0.000325366 0)
(0.0954873 0.000295088 0)
(0.0956565 0.000254402 0)
(0.0957971 0.000217625 0)
(0.0958713 0.000181134 0)
(0.0959616 0.000151283 0)
(0.0959892 0.000123781 0)
(0.0960629 0.000100729 0)
(0.0960656 8.13984e-05 0)
(0.0961369 6.15534e-05 0)
(0.0961277 4.92241e-05 0)
(0.0962018 2.99626e-05 0)
(0.0961907 2.38604e-05 0)
(0.0962658 4.08091e-06 0)
(-0.00450027 0.00334073 0)
(-0.0184676 0.0265134 0)
(-0.0527121 0.0454291 0)
(-0.0645247 0.0529337 0)
(-0.0949506 0.0506568 0)
(-0.100479 0.027544 0)
(-0.0984426 -0.00112479 0)
(-0.0847705 -0.0264068 0)
(-0.0631331 -0.0410309 0)
(-0.0389158 -0.0474089 0)
(-0.0152401 -0.0469083 0)
(0.00622441 -0.0426465 0)
(0.0248053 -0.0378531 0)
(0.0399703 -0.031638 0)
(0.0526029 -0.0252212 0)
(0.0626888 -0.0191226 0)
(0.0707975 -0.013953 0)
(0.0773657 -0.00992951 0)
(0.0826824 -0.0069566 0)
(0.0869705 -0.0048115 0)
(0.0904189 -0.00327598 0)
(0.0931844 -0.0021808 0)
(0.0953817 -0.0014123 0)
(0.097112 -0.000879525 0)
(0.0984462 -0.00052973 0)
(0.0994815 -0.000299328 0)
(0.100258 -0.000162276 0)
(0.10087 -7.31226e-05 0)
(0.101315 -2.87281e-05 0)
(0.101691 6.8417e-07 0)
(0.101948 9.83628e-06 0)
(0.102199 1.68628e-05 0)
(0.102347 1.35078e-05 0)
(0.102532 1.16181e-05 0)
(0.102612 5.28579e-06 0)
(0.102763 -2.46209e-06 0)
(0.102801 -8.21597e-06 0)
(0.102936 -2.0807e-05 0)
(0.102948 -2.44215e-05 0)
(0.103077 -4.10085e-05 0)
(-0.00595935 0.0167971 0)
(-0.01781 0.0546867 0)
(-0.0244099 0.0561379 0)
(-0.0433321 0.0641594 0)
(-0.0609785 0.058443 0)
(-0.0585086 0.0279128 0)
(-0.0526344 -0.00811752 0)
(-0.0424937 -0.0394677 0)
(-0.02401 -0.0583429 0)
(-0.00445892 -0.0639445 0)
(0.0168107 -0.0630245 0)
(0.0357174 -0.0561489 0)
(0.0511695 -0.0482513 0)
(0.0625751 -0.0399025 0)
(0.0709064 -0.0317013 0)
(0.0763375 -0.0244111 0)
(0.0800169 -0.0184624 0)
(0.0832043 -0.0137877 0)
(0.0863674 -0.010194 0)
(0.089403 -0.0074794 0)
(0.092112 -0.00545241 0)
(0.0944071 -0.00394101 0)
(0.0962902 -0.00282323 0)
(0.0978178 -0.00199593 0)
(0.0990335 -0.00140405 0)
(0.100014 -0.000973978 0)
(0.100775 -0.000685835 0)
(0.1014 -0.000477845 0)
(0.101869 -0.000346739 0)
(0.102278 -0.00024882 0)
(0.102566 -0.000191105 0)
(0.102849 -0.000143348 0)
(0.103023 -0.000119564 0)
(0.103233 -9.62547e-05 0)
(0.103334 -8.71467e-05 0)
(0.103504 -7.90145e-05 0)
(0.103555 -7.64798e-05 0)
(0.103705 -7.92e-05 0)
(0.103724 -7.91779e-05 0)
(0.103867 -9.17177e-05 0)
(-0.0209607 0.0243187 0)
(-0.0255047 0.0408567 0)
(-0.0302216 0.0606771 0)
(-0.024149 0.0741015 0)
(-0.0158324 0.0611849 0)
(-0.00741581 0.0255568 0)
(-0.00130221 -0.0123268 0)
(0.00118047 -0.0456064 0)
(0.00778058 -0.068534 0)
(0.0221955 -0.0773117 0)
(0.0366501 -0.0763067 0)
(0.0518632 -0.0685998 0)
(0.0653191 -0.0579244 0)
(0.0754535 -0.0467589 0)
(0.0838309 -0.0355274 0)
(0.0894629 -0.0256215 0)
(0.091369 -0.0187366 0)
(0.0912997 -0.0144602 0)
(0.0913784 -0.0114702 0)
(0.0923362 -0.00901498 0)
(0.0939051 -0.00693171 0)
(0.0956211 -0.00522132 0)
(0.0971798 -0.00388413 0)
(0.0984833 -0.0028613 0)
(0.0995239 -0.00211167 0)
(0.100366 -0.00155033 0)
(0.101026 -0.00115707 0)
(0.101581 -0.000859058 0)
(0.102005 -0.000657744 0)
(0.102384 -0.000499926 0)
(0.102657 -0.000397788 0)
(0.102927 -0.000310738 0)
(0.103097 -0.00026017 0)
(0.103302 -0.000211148 0)
(0.103402 -0.000186185 0)
(0.103569 -0.000161311 0)
(0.103622 -0.000150053 0)
(0.103769 -0.000142169 0)
(0.103789 -0.00013818 0)
(0.103929 -0.000144814 0)
(0.0306371 0.0418703 0)
(0.00846715 0.0692853 0)
(0.0261323 0.0575111 0)
(0.0333608 0.0591774 0)
(0.0463808 0.0478602 0)
(0.0528741 0.0192544 0)
(0.0544784 -0.0144774 0)
(0.0485792 -0.045855 0)
(0.0473765 -0.0735784 0)
(0.0511069 -0.0857086 0)
(0.0588788 -0.0836258 0)
(0.0662239 -0.075787 0)
(0.0733863 -0.0643819 0)
(0.077472 -0.0530065 0)
(0.0814399 -0.0420462 0)
(0.0881956 -0.0302273 0)
(0.0944305 -0.0199515 0)
(0.097126 -0.0136973 0)
(0.0971093 -0.0107606 0)
(0.0965121 -0.00915385 0)
(0.0964949 -0.00771347 0)
(0.0971467 -0.00621636 0)
(0.0981269 -0.00481444 0)
(0.0991354 -0.00362424 0)
(0.10001 -0.0027111 0)
(0.100738 -0.00201863 0)
(0.10131 -0.00153301 0)
(0.101793 -0.0011649 0)
(0.102164 -0.000913445 0)
(0.102501 -0.000712393 0)
(0.102744 -0.000578088 0)
(0.102991 -0.000460236 0)
(0.103147 -0.000388382 0)
(0.103337 -0.000317338 0)
(0.103431 -0.000278761 0)
(0.103588 -0.000238724 0)
(0.103638 -0.000219632 0)
(0.103777 -0.000201854 0)
(0.103797 -0.000194309 0)
(0.10393 -0.000195554 0)
(-0.0339141 0.0021905 0)
(0.0205186 0.0390112 0)
(0.0373609 0.0388248 0)
(0.0729422 0.0557543 0)
(0.0955073 0.051465 0)
(0.105996 0.0255177 0)
(0.105741 -0.00651979 0)
(0.1009 -0.0381118 0)
(0.101318 -0.0695508 0)
(0.0963393 -0.0878358 0)
(0.0928547 -0.0872288 0)
(0.0914209 -0.0779483 0)
(0.090945 -0.0642667 0)
(0.088509 -0.0506152 0)
(0.0824415 -0.041712 0)
(0.0802195 -0.0339909 0)
(0.0845242 -0.0248041 0)
(0.091187 -0.016469 0)
(0.0961345 -0.0111987 0)
(0.0984314 -0.00866079 0)
(0.0990845 -0.00741832 0)
(0.0992742 -0.00641243 0)
(0.0995712 -0.00533795 0)
(0.100053 -0.00424999 0)
(0.100601 -0.00330391 0)
(0.101138 -0.00252421 0)
(0.101596 -0.0019485 0)
(0.102004 -0.00149846 0)
(0.102324 -0.00118316 0)
(0.102622 -0.000928864 0)
(0.10284 -0.000756287 0)
(0.103063 -0.000604971 0)
(0.103205 -0.000510662 0)
(0.10338 -0.000417726 0)
(0.103466 -0.000365788 0)
(0.10361 -0.000311302 0)
(0.103657 -0.000284807 0)
(0.103786 -0.000257727 0)
(0.103804 -0.000246902 0)
(0.103927 -0.000243011 0)
(0.110307 0.044849 0)
(0.0894837 0.030573 0)
(0.0862874 0.0155627 0)
(0.0976942 0.016626 0)
(0.118647 0.0213635 0)
(0.137024 0.0122822 0)
(0.138707 -0.00900542 0)
(0.136456 -0.0402615 0)
(0.143662 -0.0678214 0)
(0.13927 -0.0802513 0)
(0.123577 -0.0809354 0)
(0.112289 -0.0747666 0)
(0.104383 -0.063271 0)
(0.10012 -0.0471553 0)
(0.0931177 -0.0352236 0)
(0.0840173 -0.0303821 0)
(0.0798326 -0.0268618 0)
(0.0822777 -0.0215263 0)
(0.0881976 -0.0157267 0)
(0.0940477 -0.0111782 0)
(0.0980274 -0.00827785 0)
(0.100072 -0.00651033 0)
(0.10091 -0.00528998 0)
(0.101262 -0.00426854 0)
(0.101504 -0.00339767 0)
(0.101771 -0.00265191 0)
(0.102044 -0.00208782 0)
(0.102327 -0.00163769 0)
(0.102566 -0.00132218 0)
(0.102803 -0.00106141 0)
(0.102978 -0.000882083 0)
(0.103166 -0.000717552 0)
(0.103286 -0.000612812 0)
(0.103438 -0.000505399 0)
(0.103514 -0.000444213 0)
(0.103642 -0.000377903 0)
(0.103683 -0.000345356 0)
(0.103798 -0.000309924 0)
(0.103815 -0.000296249 0)
(0.103925 -0.000287473 0)
(0.137913 0.0431492 0)
(0.143026 0.0409007 0)
(0.15136 0.0339177 0)
(0.14626 0.0253337 0)
(0.152301 0.0195453 0)
(0.164815 0.011542 0)
(0.165786 -0.0047393 0)
(0.162939 -0.0400386 0)
(0.161303 -0.0703668 0)
(0.156347 -0.0738508 0)
(0.138737 -0.0677286 0)
(0.121908 -0.0622307 0)
(0.109024 -0.0545853 0)
(0.100564 -0.0426128 0)
(0.0971795 -0.0304079 0)
(0.0939523 -0.024331 0)
(0.0896067 -0.0233342 0)
(0.086554 -0.0225048 0)
(0.0867361 -0.0196864 0)
(0.0897688 -0.0156131 0)
(0.0939312 -0.0115904 0)
(0.0976234 -0.00841497 0)
(0.100092 -0.00622529 0)
(0.101407 -0.00475717 0)
(0.10199 -0.00377028 0)