/*--------------------------------*- C++ -*----------------------------------*\
| =========                 |                                                 |
| \\      /  F ield         | OpenFOAM: The Open Source CFD Toolbox           |
|  \\    /   O peration     | Version:  2112                                  |
|   \\  /    A nd           | Website:  www.openfoam.com                      |
|    \\/     M anipulation  |                                                 |
\*---------------------------------------------------------------------------*/
FoamFile
{
    version     2.0;
    format      ascii;
    arch        "LSB;label=32;scalar=64";
    class       volScalarField;
    location    "0.31";
    object      nut;
}
// * * * * * * * * * * * * * * * * * * * * * * * * * * * * * * * * * * * * * //

dimensions      [0 2 -1 0 0 0 0];

internalField   nonuniform List<scalar> 
1880
(
3.43317e-11
3.66881e-12
6.44707e-13
6.94733e-14
1.50582e-14
2.28472e-13
1.53667e-14
3.71244e-14
1.92278e-14
2.55441e-14
1.37033e-14
7.88101e-14
8.08638e-14
1.75349e-13
2.03842e-13
1.34153e-13
1.06893e-13
3.52047e-14
1.23872e-12
1.15623e-13
4.50253e-13
5.1046e-13
4.63196e-13
4.61864e-12
3.81387e-14
9.13435e-12
1.03995e-10
1.07928e-11
1.15223e-09
9.87967e-10
4.41731e-09
5.55584e-09
2.8281e-09
5.53142e-11
2.04988e-10
2.87722e-11
4.68212e-11
4.44637e-12
2.06171e-12
6.23792e-12
7.96623e-13
8.43603e-12
6.51269e-16
9.11988e-12
8.4399e-12
7.71465e-12
9.44167e-12
5.40782e-12
1.95029e-11
6.66009e-11
3.58066e-10
1.88885e-10
8.77201e-10
2.09755e-10
2.12948e-10
1.44002e-09
1.29137e-10
2.55873e-09
6.93935e-09
9.40481e-09
1.72852e-09
2.895e-09
1.67561e-09
9.94036e-11
1.18701e-09
7.01714e-10
1.62386e-09
2.79748e-09
2.46828e-09
2.6072e-09
6.40207e-10
2.56318e-09
6.38651e-11
2.48328e-09
4.40081e-10
6.3576e-11
3.58572e-09
1.3398e-11
2.99677e-09
2.01607e-09
1.07015e-14
7.68921e-09
2.99471e-10
2.65995e-09
1.08542e-08
2.98476e-09
1.00267e-08
2.93626e-08
1.02497e-08
2.34408e-08
1.1257e-10
1.94153e-09
8.18185e-10
6.31905e-09
8.93275e-10
3.13886e-09
1.12292e-10
6.03487e-10
9.33827e-09
4.59054e-09
1.75397e-08
2.18255e-09
1.34686e-08
2.43462e-09
2.33145e-08
4.58321e-09
1.35818e-08
5.65613e-09
7.69681e-09
9.40071e-09
1.0231e-08
8.93695e-09
8.23685e-09
9.65267e-09
8.97736e-09
1.44622e-08
1.83277e-08
2.5569e-08
2.93237e-08
2.45149e-08
5.78427e-11
7.79465e-10
1.10289e-09
6.07916e-12
1.99256e-09
5.38622e-10
2.43334e-09
1.04521e-09
6.6414e-09
4.1813e-09
6.04816e-09
8.77636e-09
2.68078e-09
1.44377e-09
1.29591e-08
2.73139e-09
2.96979e-08
3.53858e-09
1.87177e-09
6.61762e-09
6.23253e-09
8.19303e-09
2.98742e-09
8.58601e-09
5.54774e-09
1.28054e-08
1.21194e-08
2.31393e-08
2.02623e-08
2.70332e-08
2.38328e-11
5.63296e-11
3.01998e-10
5.35168e-10
7.19724e-10
2.22867e-09
6.24135e-10
2.34433e-09
3.00548e-09
5.63017e-09
1.56613e-09
8.47875e-10
3.81562e-10
1.82999e-09
7.58577e-10
8.85729e-10
1.04904e-10
2.95954e-09
4.62385e-10
3.37596e-09
3.51475e-09
5.55711e-09
6.0596e-09
8.79886e-09
9.85215e-09
1.27635e-08
1.46349e-08
1.7033e-08
2.2719e-08
2.16832e-08
2.53634e-11
9.69276e-11
7.71405e-10
2.44744e-10
2.88697e-09
1.55506e-09
2.81874e-09
1.89096e-09
5.92874e-09
4.56578e-09
3.92739e-09
2.7242e-10
1.48793e-09
1.26064e-09
9.28118e-10
2.89087e-09
1.88905e-09
1.86308e-09
2.84236e-09
3.1899e-09
4.27609e-09
5.87859e-09
6.63556e-09
7.25014e-09
1.0098e-08
1.06801e-08
1.31104e-08
1.59066e-08
1.90466e-08
2.02778e-08
2.83392e-11
4.10983e-11
5.33373e-10
6.0349e-10
1.95603e-09
2.02766e-09
1.58347e-09
2.12568e-09
3.4686e-09
4.48328e-09
2.0643e-09
4.40698e-10
2.0088e-09
1.92065e-09
2.43487e-09
1.74416e-09
2.89315e-09
5.04733e-09
4.74316e-09
4.21655e-09
5.92931e-09
6.57398e-09
7.71104e-09
8.40934e-09
1.10679e-08
1.15557e-08
1.4058e-08
1.50273e-08
1.93859e-08
1.83931e-08
4.96298e-11
3.37957e-11
6.83177e-10
8.50006e-10
2.27506e-09
1.99124e-09
1.86304e-09
1.82117e-09
3.28949e-09
3.43512e-09
1.81651e-09
1.96034e-09
2.0116e-09
2.25801e-09
2.59451e-09
2.29389e-09
3.62227e-09
4.8557e-09
5.42063e-09
4.95046e-09
6.07913e-09
6.59296e-09
7.55581e-09
7.60731e-09
1.02737e-08
1.09338e-08
1.30522e-08
1.42365e-08
1.73179e-08
1.77265e-08
8.2632e-11
6.48951e-11
7.19944e-10
1.06223e-09
2.0082e-09
1.91539e-09
1.71687e-09
1.81327e-09
2.71514e-09
3.23678e-09
2.11295e-09
2.22847e-09
2.54681e-09
3.00807e-09
3.18647e-09
2.6652e-09
4.26379e-09
5.76916e-09
5.68144e-09
4.94232e-09
6.23782e-09
6.81038e-09
7.73066e-09
8.11976e-09
1.03669e-08
1.08544e-08
1.2912e-08
1.35873e-08
1.65692e-08
1.67438e-08
1.64737e-10
2.66225e-10
8.18123e-10
1.2739e-09
1.80834e-09
1.931e-09
1.75579e-09
1.91484e-09
2.14499e-09
3.08509e-09
2.22778e-09
2.95001e-09
2.86622e-09
3.30729e-09
3.35779e-09
3.0131e-09
4.3218e-09
5.97199e-09
5.35445e-09
5.28042e-09
6.00685e-09
6.7078e-09
7.65744e-09
8.00659e-09
9.87633e-09
1.07033e-08
1.22112e-08
1.30526e-08
1.52434e-08
1.61216e-08
2.58433e-10
6.74024e-10
9.0468e-10
1.34883e-09
1.83459e-09
1.86686e-09
1.96487e-09
2.07884e-09
2.4135e-09
2.97693e-09
2.52784e-09
3.33976e-09
3.11585e-09
3.66634e-09
3.79618e-09
3.44671e-09
4.58419e-09
5.51384e-09
5.46676e-09
5.47793e-09
6.28294e-09
6.94283e-09
7.80073e-09
8.13154e-09
9.80698e-09
1.03809e-08
1.189e-08
1.26349e-08
1.45887e-08
1.53912e-08
6.81898e-11
6.58353e-10
8.67083e-10
1.41985e-09
1.55013e-09
1.92638e-09
2.1553e-09
2.15357e-09
2.17406e-09
3.0886e-09
2.70807e-09
3.22286e-09
3.33575e-09
4.08104e-09
3.78328e-09
3.68674e-09
4.39959e-09
5.71549e-09
5.2975e-09
5.76898e-09
6.42729e-09
7.09918e-09
7.84095e-09
8.24865e-09
9.37004e-09
1.02337e-08
1.13359e-08
1.22435e-08
1.3669e-08
1.46823e-08
1.52908e-12
7.14624e-10
8.53997e-10
1.38683e-09
1.74767e-09
1.9175e-09
2.21353e-09
2.38782e-09
2.41457e-09
3.05571e-09
2.80387e-09
3.58306e-09
3.49942e-09
4.13488e-09
4.09589e-09
4.13179e-09
4.66605e-09
5.46892e-09
5.56737e-09
6.14889e-09
6.6742e-09
7.29388e-09
8.02943e-09
8.33245e-09
9.41048e-09
1.00821e-08
1.11387e-08
1.19772e-08
1.32343e-08
1.41205e-08
2.88481e-12
2.33939e-10
5.41956e-10
1.25621e-09
1.18862e-09
1.85245e-09
2.42182e-09
2.01197e-09
2.11108e-09
3.03049e-09
2.72645e-09
3.06288e-09
3.50631e-09
4.31833e-09
3.90968e-09
4.10675e-09
4.56131e-09
5.62851e-09
5.51569e-09
6.09024e-09
6.76128e-09
7.46426e-09
8.00882e-09
8.39027e-09
8.9881e-09
9.82484e-09
1.06288e-08
1.13742e-08
1.23795e-08
1.32732e-08
2.64424e-11
1.09135e-09
1.04704e-09
1.44031e-09
1.55853e-09
1.80385e-09
2.00467e-09
2.41962e-09
2.39626e-09
2.85236e-09
2.71994e-09
3.40879e-09
3.49262e-09
4.12876e-09
4.02148e-09
4.44328e-09
4.73297e-09
5.49884e-09
5.57053e-09
6.3371e-09
6.84993e-09
7.53873e-09
8.20236e-09
8.61729e-09
9.23262e-09
9.86235e-09
1.04655e-08
1.11115e-08
1.19594e-08
1.27347e-08
1.67577e-12
2.4496e-12
2.28978e-10
8.81562e-10
9.34085e-10
1.18863e-09
1.6524e-09
1.13491e-09
1.48531e-09
2.39376e-09
2.23302e-09
2.36537e-09
3.34979e-09
4.09256e-09
3.63019e-09
4.20274e-09
4.82154e-09
5.53069e-09
5.40147e-09
6.00529e-09
6.73089e-09
7.56268e-09
8.0746e-09
8.51332e-09
8.87413e-09
9.35652e-09
9.72065e-09
1.0061e-08
1.06795e-08
1.14595e-08
1.89583e-09
2.74648e-09
1.56136e-09
1.67508e-09
1.80617e-09
2.26798e-09
2.89294e-09
4.10188e-09
3.05233e-09
2.85013e-09
1.97987e-09
1.55195e-09
3.24838e-10
3.0563e-10
1.80264e-10
1.51296e-10
1.84415e-11
5.97177e-12
3.25274e-12
1.37524e-11
1.25173e-12
1.35846e-13
4.92819e-13
2.04897e-12
7.92996e-12
4.91308e-12
3.57637e-12
4.41634e-11
2.34269e-10
1.0043e-09
4.96804e-09
5.57436e-09
1.01795e-09
1.54486e-10
2.61935e-11
5.36805e-12
2.63474e-12
6.98764e-15
5.18035e-13
7.14135e-13
3.15036e-13
6.74859e-13
4.85935e-12
1.64118e-12
4.05567e-13
7.82047e-13
4.06776e-12
6.28185e-12
7.69549e-12
9.33012e-12
6.68441e-12
4.32473e-12
6.78924e-12
1.40134e-11
2.85742e-11
4.33249e-11
3.83298e-11
2.5268e-11
1.28722e-11
3.20935e-12
3.46205e-11
4.71509e-12
2.44914e-13
1.05764e-14
7.60061e-14
3.23964e-14
8.54659e-16
1.44245e-15
6.05485e-19
5.06535e-18
8.31294e-16
1.18124e-14
2.89686e-15
5.67293e-16
4.71011e-16
2.07305e-14
7.73004e-14
3.08303e-14
3.42911e-15
1.0017e-15
1.29402e-15
3.21431e-14
2.35257e-13
6.06133e-13
7.72568e-13
5.21992e-13
2.02173e-13
5.79055e-14
5.7147e-15
5.2173e-17
1.40074e-09
3.67302e-10
6.1072e-10
2.03575e-10
1.51943e-10
3.37776e-11
5.43963e-11
2.83515e-10
2.74316e-09
1.85802e-09
8.8515e-09
1.34521e-08
2.10524e-08
1.35689e-08
9.98392e-09
8.48331e-09
3.54561e-10
5.99465e-09
1.74848e-08
5.09049e-08
7.33095e-08
2.5512e-08
3.07901e-09
5.08302e-08
5.03974e-08
6.76808e-08
6.93506e-08
5.63918e-08
1.55015e-07
8.99188e-08
5.99088e-08
4.69362e-08
3.93193e-08
3.33681e-08
3.72271e-08
3.35264e-08
5.75886e-08
3.56261e-08
9.9244e-09
4.56331e-08
4.10853e-08
3.11016e-08
3.09607e-08
3.83168e-08
3.9978e-08
4.06018e-08
4.30037e-08
3.91278e-08
3.05214e-08
3.33808e-08
4.24614e-08
3.09805e-08
2.97117e-08
2.96183e-08
3.45422e-08
3.32828e-08
3.5307e-08
4.74748e-08
3.74996e-08
2.97204e-08
3.10365e-08
2.63039e-08
2.74197e-08
2.88993e-08
3.11099e-08
3.21572e-08
3.23154e-08
3.69006e-08
3.6589e-08
2.53496e-08
3.03961e-08
2.42913e-08
2.62192e-08
2.6191e-08
2.86281e-08
2.97402e-08
2.98719e-08
3.53871e-08
3.20842e-08
2.2609e-08
2.49952e-08
2.23021e-08
2.39591e-08
2.44501e-08
2.6433e-08
2.83212e-08
2.71394e-08
2.94059e-08
2.93957e-08
2.29279e-08
2.32481e-08
2.04478e-08
2.27727e-08
2.32301e-08
2.40446e-08
2.60685e-08
2.60753e-08
2.68568e-08
2.47505e-08
2.13751e-08
2.04061e-08
1.91573e-08
2.09784e-08
2.17024e-08
2.26327e-08
2.41855e-08
2.32996e-08
2.38437e-08
2.35726e-08
2.02565e-08
1.89795e-08
1.79185e-08
1.98258e-08
2.0451e-08
2.07623e-08
2.22603e-08
2.2172e-08
2.15993e-08
2.05756e-08
1.88397e-08
1.70744e-08
1.68451e-08
1.83948e-08
1.92497e-08
1.96421e-08
2.04906e-08
2.01194e-08
1.98969e-08
1.92969e-08
1.73975e-08
1.61442e-08
1.59328e-08
1.73421e-08
1.80059e-08
1.83147e-08
1.9034e-08
1.88452e-08
1.82201e-08
1.75568e-08
1.62044e-08
1.46164e-08
1.49395e-08
1.61577e-08
1.69342e-08
1.72879e-08
1.77191e-08
1.7437e-08
1.6981e-08
1.63741e-08
1.50324e-08
1.39774e-08
1.41115e-08
1.51846e-08
1.57903e-08
1.62048e-08
1.65669e-08
1.63981e-08
1.58879e-08
1.5296e-08
1.41474e-08
1.23632e-08
1.28444e-08
1.40074e-08
1.46305e-08
1.52215e-08
1.54196e-08
1.54435e-08
1.48017e-08
1.44016e-08
1.2917e-08
2.21568e-09
2.25486e-09
4.14364e-09
4.15198e-09
5.56416e-09
4.92293e-09
5.68207e-09
4.27656e-09
4.28074e-09
2.74237e-09
5.44296e-13
1.97424e-13
2.10977e-13
2.51124e-12
5.40924e-12
1.18547e-11
1.68776e-11
2.15731e-11
2.24547e-11
2.00906e-11
1.26976e-14
9.38171e-15
1.4222e-14
1.70872e-14
2.08647e-14
3.70367e-14
4.02473e-14
6.51681e-14
5.35249e-14
3.83265e-14
5.88519e-08
5.27406e-09
5.94562e-08
3.60552e-08
2.23987e-08
1.21771e-08
2.62755e-09
8.85995e-10
2.27812e-10
2.02768e-10
2.01015e-10
6.66769e-10
1.84051e-09
8.40423e-09
3.40196e-08
1.17178e-07
8.46173e-08
1.30855e-08
1.72507e-09
2.96655e-10
6.84448e-11
1.945e-11
5.58029e-12
1.35752e-12
1.77394e-13
1.27501e-15
1.00203e-14
6.86271e-14
1.30479e-13
1.51799e-13
1.22984e-13
7.85384e-14
3.92101e-14
1.69493e-14
6.08918e-15
2.03159e-15
6.30304e-16
1.69601e-16
8.34093e-17
3.45831e-16
6.42555e-08
8.85288e-07
7.04882e-09
6.33637e-08
1.68624e-07
1.44225e-07
1.93038e-09
1.06433e-06
4.36376e-07
2.16516e-09
8.89854e-10
1.82515e-08
4.81754e-08
8.12138e-08
1.0852e-07
1.1247e-07
1.01016e-07
8.69853e-08
6.95738e-08
5.15718e-08
3.49548e-08
1.97913e-08
8.34503e-09
2.63208e-09
6.99578e-10
1.514e-10
2.25619e-11
1.4498e-12
4.51034e-14
3.57395e-13
9.32827e-13
1.06578e-12
9.99376e-13
6.93836e-13
4.87313e-13
2.74638e-13
1.77721e-13
8.49856e-14
5.1868e-14
1.79409e-14
4.93944e-08
2.61001e-09
1.86872e-08
1.34145e-07
4.50055e-09
2.325e-07
1.34783e-06
1.58183e-06
6.14739e-07
6.6566e-08
4.03031e-09
3.55765e-11
1.9809e-09
2.73002e-08
6.747e-08
8.71915e-08
8.48712e-08
8.05546e-08
7.32899e-08
6.19494e-08
5.28446e-08
4.62897e-08
3.85669e-08
3.02665e-08
1.7897e-08
4.98767e-09
6.08956e-10
3.45823e-11
7.67326e-13
7.6533e-13
1.09823e-12
9.9988e-13
7.82814e-13
5.37817e-13
5.14284e-13
4.00706e-13
4.84553e-13
3.51456e-13
3.65217e-13
1.92585e-13
2.89826e-08
4.77686e-09
1.44308e-07
1.06842e-07
3.13393e-09
2.67725e-07
1.49692e-06
1.83409e-06
9.49299e-07
1.6934e-07
2.87148e-08
9.98394e-09
3.50926e-10
3.70415e-09
4.49023e-08
8.73549e-08
8.40153e-08
7.12407e-08
6.95867e-08
6.05891e-08
4.51493e-08
3.46249e-08
2.19195e-08
6.38898e-09
2.5109e-09
3.46375e-09
8.39447e-09
3.10551e-09
4.73032e-12
1.54432e-11
7.50393e-12
8.22831e-13
1.52146e-11
3.32764e-11
1.722e-11
4.7543e-12
3.27691e-14
1.07894e-13
2.38628e-12
5.08945e-12
4.08091e-08
9.92427e-08
1.5119e-07
8.39124e-08
2.22639e-08
9.05588e-07
2.17236e-06
2.28079e-06
1.41624e-06
3.42443e-07
6.7837e-08
6.45439e-08
3.5638e-08
1.37315e-10
1.43455e-08
7.6573e-08
9.81841e-08
7.04323e-08
5.57795e-08
5.04182e-08
3.28239e-08
2.52301e-08
1.53778e-08
2.32713e-09
6.83877e-09
1.04188e-09
4.45556e-11
1.60122e-11
6.43847e-10
2.91533e-09
9.02428e-10
1.38896e-11
1.3812e-12
1.44344e-10
3.4965e-10
4.11815e-10
2.12773e-10
5.30247e-11
5.08273e-13
6.76725e-11
2.37797e-06
1.20076e-07
9.18289e-08
2.68578e-08
1.98395e-08
3.04748e-07
1.30937e-06
1.77413e-06
1.2261e-06
3.4564e-07
7.42663e-08
1.0209e-07
1.55863e-07
1.69961e-08
3.60654e-09
5.30467e-08
9.79896e-08
7.86274e-08
4.99616e-08
3.91299e-08
1.56317e-08
2.06961e-09
6.48603e-09
1.23369e-08
2.18484e-10
4.45362e-09
5.36564e-12
3.98552e-11
2.31854e-10
5.20754e-10
9.10335e-10
1.26446e-09
1.64199e-09
1.30333e-09
6.27609e-10
6.24669e-10
4.79158e-10
4.05903e-10
2.57341e-10
3.81627e-10
3.82312e-08
1.92736e-07
2.13101e-07
2.24274e-07
3.33382e-09
2.94444e-07
1.98263e-06
2.40055e-06
2.04638e-06
1.02834e-06
2.43265e-07
1.8119e-07
3.16077e-07
5.10582e-08
9.44159e-09
6.69374e-08
7.931e-08
2.69484e-08
1.84188e-08
3.71007e-08
2.96727e-08
5.38194e-09
1.29184e-09
1.44094e-08
5.36708e-09
5.29183e-10
4.7682e-09
1.2019e-08
6.64285e-09
3.52841e-09
2.13664e-09
1.32663e-09
8.64529e-10
4.84574e-10
2.83621e-10
1.62621e-10
1.76103e-10
1.6322e-11
4.76976e-11
2.26648e-10
1.6425e-08
3.55545e-08
3.51383e-09
5.58829e-08
4.80155e-08
4.29581e-09
2.28685e-07
1.706e-06
1.89784e-06
1.40874e-06
5.41369e-07
4.17153e-07
3.73353e-07
6.51974e-09
4.60672e-08
9.17794e-08
8.08897e-08
5.67291e-08
7.03457e-09
6.9065e-09
2.83586e-08
2.8469e-08
2.38815e-08
2.42652e-08
1.74101e-08
7.07133e-10
2.0392e-12
3.71742e-12
8.15804e-10
6.7496e-09
1.33899e-08
9.18053e-09
3.60493e-09
8.67659e-10
7.85384e-11
1.02014e-11
6.64692e-10
1.99551e-09
3.44449e-11
4.29825e-10
8.55932e-07
2.47509e-08
9.04885e-10
1.41761e-10
1.80018e-08
2.31941e-07
8.77566e-07
1.58578e-06
1.74298e-06
1.45021e-06
8.51991e-07
5.35979e-07
1.04519e-07
2.55237e-08
1.01308e-07
1.01435e-07
7.3144e-08
6.15392e-08
4.41032e-08
4.01618e-08
3.57378e-08
3.22628e-08
2.7504e-08
2.21971e-08
1.87932e-08
1.62467e-08
9.66541e-09
1.91433e-09
2.12685e-10
1.59076e-10
4.68138e-10
1.92889e-09
5.21147e-09
7.2348e-09
4.13829e-09
6.13341e-10
3.64235e-12
4.12802e-10
1.99405e-11
1.51451e-10
4.56385e-08
3.29237e-07
7.8627e-08
8.32633e-09
1.15393e-08
4.67904e-07
1.09968e-06
1.39009e-06
1.50946e-06
1.21072e-06
7.53168e-07
5.45739e-08
5.30075e-08
7.22148e-08
4.7582e-08
7.26732e-08
5.21923e-08
4.01952e-08
4.42241e-08
3.81913e-08
3.01527e-08
3.02189e-08
3.04666e-08
2.3372e-08
6.57568e-09
2.06436e-09
6.53053e-09
7.14995e-10
4.11141e-09
2.0775e-08
1.09966e-09
3.80454e-09
2.86632e-09
3.26471e-09
3.72157e-09
3.95695e-09
2.97547e-09
1.29803e-09
7.55385e-11
3.21378e-10
3.98712e-08
6.29188e-08
5.6096e-09
3.35586e-08
2.17189e-08
2.25976e-08
3.45803e-07
2.51929e-07
9.9955e-08
3.82814e-10
3.56892e-08
6.65016e-08
8.38384e-08
8.50969e-08
5.69324e-08
4.11224e-08
3.44495e-08
3.31143e-08
2.94296e-08
9.15714e-09
2.61461e-08
2.01782e-08
1.81099e-08
5.85291e-09
1.21253e-09
1.14728e-08
1.49177e-08
9.97683e-09
2.82997e-08
8.05207e-09
2.02661e-09
1.17366e-09
1.73935e-09
6.12036e-09
2.19865e-10
2.91132e-09
2.82485e-09
1.91257e-09
1.09258e-09
3.09791e-10
1.68062e-08
3.50856e-08
2.2137e-08
6.02993e-08
6.71429e-08
5.95209e-08
4.38741e-08
5.29237e-08
6.67363e-08
5.54962e-08
6.59442e-08
6.40417e-08
5.34394e-08
6.00553e-08
4.79111e-08
4.21814e-08
2.55324e-08
3.19319e-08
3.99983e-08
1.18311e-08
7.57747e-10
1.68518e-08
1.17812e-08
1.33748e-08
1.4215e-07
1.90291e-07
6.5344e-10
1.38977e-09
1.11824e-10
2.36781e-10
3.24383e-09
4.73251e-09
1.56653e-10
3.11244e-09
7.07114e-09
8.13332e-09
2.54541e-09
1.24081e-10
1.59039e-10
7.67518e-10
1.61558e-08
4.33942e-08
2.58279e-08
3.36632e-08
4.90273e-08
5.31937e-08
5.55777e-08
6.07554e-08
6.49448e-08
6.33219e-08
6.52226e-08
6.31143e-08
4.21272e-08
4.18955e-08
4.89606e-08
5.02514e-08
4.22194e-08
2.23012e-08
2.90988e-08
1.54825e-08
1.53827e-08
2.3285e-08
2.03017e-08
2.16613e-08
1.94166e-08
1.46255e-08
1.52817e-08
1.43291e-08
1.79525e-09
1.07664e-10
8.27059e-11
1.7728e-10
7.67119e-10
2.28428e-09
4.30551e-09
5.6757e-09
4.42004e-09
1.99031e-09
1.02661e-09
7.16259e-10
3.99471e-08
4.2315e-08
3.11183e-08
3.11886e-08
3.86944e-08
4.19268e-08
4.46221e-08
4.82555e-08
4.96525e-08
4.98972e-08
5.28229e-08
4.91894e-08
5.02268e-08
3.40717e-08
3.26361e-08
3.34791e-08
3.42633e-08
2.97912e-08
2.49606e-08
2.27089e-08
2.35977e-08
2.40761e-08
1.31112e-08
3.17454e-09
1.59065e-08
5.15012e-09
1.87021e-10
1.04031e-08
1.06208e-09
1.25582e-08
4.23914e-08
9.35312e-08
8.08948e-08
1.00106e-09
1.07633e-09
2.60882e-09
2.46069e-09
1.40461e-09
1.00669e-09
6.39935e-10
2.77266e-08
3.64972e-08
3.40832e-08
2.96892e-08
3.1033e-08
3.34747e-08
3.86167e-08
4.1058e-08
4.18775e-08
4.44338e-08
3.56303e-08
4.48628e-08
4.57335e-08
3.61878e-08
3.35315e-08
3.15168e-08
2.29958e-08
2.8174e-08
2.54717e-08
1.99535e-08
4.25616e-10
1.17705e-08
1.46669e-08
9.05192e-09
1.02827e-08
1.38538e-09
2.37433e-09
1.08313e-08
8.91933e-09
8.7357e-09
7.07056e-09
8.48318e-08
9.43137e-08
4.06946e-08
6.44644e-09
2.94545e-10
9.36331e-11
5.66525e-10
1.5414e-09
1.35392e-09
2.64674e-08
3.23104e-08
3.09076e-08
2.80983e-08
2.76467e-08
2.89467e-08
3.11904e-08
3.48542e-08
3.77519e-08
3.36574e-08
3.52404e-08
2.7349e-08
3.30807e-08
3.38758e-08
3.05342e-08
3.03024e-08
2.38894e-08
1.84343e-08
2.06782e-08
2.59657e-08
1.98787e-08
1.61207e-08
1.57518e-08
1.25778e-08
1.41325e-08
1.025e-08
1.70539e-09
3.40823e-09
6.17141e-09
7.29661e-14
3.27674e-11
9.11966e-10
3.10194e-09
5.16386e-09
5.7256e-09
5.05851e-09
3.66841e-09
2.16689e-09
1.19588e-09
1.01581e-10
2.37065e-08
2.65326e-08
2.60788e-08
2.47387e-08
2.42448e-08
2.50909e-08
2.61014e-08
2.96487e-08
2.91052e-08
3.1423e-08
3.23867e-08
2.86312e-08
2.36782e-08
3.10157e-08
2.82811e-08
2.18271e-08
2.5668e-08
2.74244e-08
2.03045e-08
1.67472e-08
1.79187e-08
1.64748e-08
1.46301e-08
2.97032e-09
7.16743e-09
1.02325e-08
8.193e-10
1.3074e-10
2.7337e-09
1.48976e-08
5.84835e-08
4.93348e-08
1.76977e-08
3.60022e-09
1.3505e-09
2.05185e-09
2.16057e-09
6.55699e-10
8.31338e-10
7.95972e-10
2.08081e-08
2.33565e-08
2.33556e-08
2.17592e-08
2.19404e-08
2.25633e-08
2.23275e-08
2.34034e-08
2.61712e-08
2.4232e-08
2.46605e-08
2.57768e-08
2.5259e-08
1.98239e-08
2.35198e-08
2.42032e-08
1.93407e-08
1.97048e-08
1.86507e-08
1.69706e-08
1.42047e-08
1.44537e-08
1.65662e-08
1.05476e-08
7.25626e-09
8.09919e-09
6.91743e-09
7.71251e-09
8.70481e-09
6.94923e-09
4.4961e-09
3.32993e-09
3.54912e-09
4.1718e-09
4.13397e-09
3.47702e-09
2.72504e-09
1.72324e-09
1.12808e-09
3.3338e-10
1.94696e-08
2.01908e-08
1.9735e-08
1.95e-08
1.88112e-08
1.91843e-08
2.04255e-08
2.01931e-08
2.09723e-08
2.23206e-08
2.13442e-08
2.02587e-08
2.25285e-08
2.12828e-08
1.84124e-08
2.10461e-08
2.09225e-08
1.81495e-08
1.71546e-08
1.91731e-08
1.7878e-08
1.41621e-08
1.34044e-08
1.40111e-08
1.39027e-08
1.1734e-08
8.22152e-09
4.79075e-09
3.03763e-09
3.92044e-09
5.59884e-09
6.40889e-09
6.24154e-09
5.30971e-09
4.0958e-09
2.89859e-09
1.87487e-09
1.11863e-09
5.57793e-10
6.18101e-10
1.73082e-08
1.78078e-08
1.75571e-08
1.68443e-08
1.70191e-08
1.68432e-08
1.64354e-08
1.77528e-08
1.80524e-08
1.75038e-08
1.90287e-08
1.86719e-08
1.70976e-08
1.90322e-08
1.93562e-08
1.69757e-08
1.73228e-08
1.91505e-08
1.77021e-08
1.50387e-08
1.49193e-08
1.58316e-08
1.51322e-08
1.23072e-08
9.19457e-09
8.04644e-09
8.27531e-09
8.14045e-09
7.73255e-09
7.0434e-09
6.03547e-09
4.83239e-09
3.87569e-09
3.1131e-09
2.62051e-09
2.00933e-09
1.56899e-09
9.70598e-10
6.90636e-10
3.31742e-10
1.5945e-08
1.58698e-08
1.5292e-08
1.48622e-08
1.45026e-08
1.45026e-08
1.46869e-08
1.43981e-08
1.50593e-08
1.58012e-08
1.51909e-08
1.5791e-08
1.66565e-08
1.55911e-08
1.58024e-08
1.73118e-08
1.69154e-08
1.57738e-08
1.62734e-08
1.67939e-08
1.56739e-08
1.3924e-08
1.3146e-08
1.28669e-08
1.2024e-08
1.03841e-08
8.49682e-09
6.66726e-09
5.57372e-09
5.31323e-09
5.38858e-09
5.24993e-09
4.78815e-09
4.07041e-09
3.21336e-09
2.37923e-09
1.70977e-09
1.19787e-09
9.40839e-10
7.93161e-10
1.44289e-08
1.41669e-08
1.36077e-08
1.29911e-08
1.27003e-08
1.24008e-08
1.21985e-08
1.24973e-08
1.26551e-08
1.28689e-08
1.3488e-08
1.35132e-08
1.36036e-08
1.43588e-08
1.45008e-08
1.42337e-08
1.48889e-08
1.54993e-08
1.501e-08
1.41297e-08
1.37792e-08
1.33803e-08
1.24915e-08
1.09266e-08
9.16521e-09
7.81557e-09
7.24286e-09
6.82733e-09
6.41958e-09
5.81436e-09
5.07152e-09
4.11439e-09
3.22983e-09
2.35162e-09
1.7646e-09
1.22564e-09
9.57182e-10
6.65172e-10
5.59104e-10
3.76264e-10
1.34068e-08
1.29007e-08
1.21574e-08
1.15005e-08
1.11124e-08
1.08474e-08
1.07294e-08
1.07709e-08
1.11507e-08
1.15636e-08
1.17793e-08
1.21148e-08
1.21656e-08
1.17636e-08
1.15937e-08
1.14059e-08
1.04918e-08
9.37806e-09
8.62553e-09
7.87012e-09
6.6866e-09
5.25198e-09
4.27417e-09
3.72708e-09
3.4644e-09
3.14929e-09
2.8405e-09
2.38401e-09
1.9935e-09
1.65097e-09
1.49365e-09
1.29925e-09
1.16748e-09
9.35928e-10
8.16364e-10
6.28185e-10
5.87284e-10
4.44873e-10
4.96274e-10
3.85689e-10
1.21642e-08
1.16487e-08
1.08981e-08
1.01554e-08
9.68229e-09
9.38087e-09
9.21019e-09
9.22809e-09
9.20056e-09
9.00237e-09
8.3439e-09
6.95539e-09
5.1156e-09
3.20939e-09
1.4559e-09
3.76463e-10
4.73057e-11
1.04815e-12
1.32588e-12
3.32994e-11
9.49281e-11
9.35529e-11
4.91742e-11
2.8288e-11
1.33648e-11
4.58939e-12
7.27339e-13
2.96309e-16
1.9995e-12
1.21731e-11
2.67891e-11
2.81094e-11
2.54777e-11
1.59249e-11
1.16112e-11
7.61155e-12
6.10604e-12
4.34854e-12
2.93597e-12
1.67446e-12
2.36578e-09
2.08569e-09
1.87143e-09
1.77032e-09
1.7943e-09
1.84174e-09
1.84032e-09
1.81566e-09
1.68256e-09
1.36608e-09
9.50271e-10
5.47619e-10
2.22783e-10
3.9459e-11
4.29731e-13
9.9811e-12
7.0058e-11
1.82601e-10
2.84102e-10
3.00527e-10
2.37515e-10
1.57833e-10
9.93069e-11
6.17928e-11
2.9493e-11
8.30264e-12
9.03353e-13
2.25667e-14
4.80859e-14
1.99011e-13
3.50091e-13
4.64713e-13
6.39582e-13
7.71096e-13
1.077e-12
1.06108e-12
1.44543e-12
1.03793e-12
1.29639e-12
6.39569e-13
1.85578e-11
1.69278e-11
1.89937e-11
2.34878e-11
2.97769e-11
3.65032e-11
4.30689e-11
4.77226e-11
4.69001e-11
4.14291e-11
3.04736e-11
1.56087e-11
5.23971e-12
7.82552e-13
1.0601e-13
2.8939e-12
1.20573e-11
2.24217e-11
2.94275e-11
3.20113e-11
2.72851e-11
1.7454e-11
8.26258e-12
2.97467e-12
7.90688e-13
1.34612e-13
6.55814e-15
2.20115e-15
5.10268e-14
1.51267e-13
2.59826e-13
2.72209e-13
2.60084e-13
1.84876e-13
1.41638e-13
8.56679e-14
5.6444e-14
3.20597e-14
1.36918e-14
7.84646e-15
2.83867e-14
1.59546e-14
3.12197e-14
6.46224e-14
1.17149e-13
1.81043e-13
2.54881e-13
3.33008e-13
3.6252e-13
3.15978e-13
2.37073e-13
1.23055e-13
1.97702e-14
1.03932e-14
1.38294e-13
5.46643e-13
1.11087e-12
1.37048e-12
1.04616e-12
4.7012e-13
1.27434e-13
1.95012e-14
1.39809e-15
3.06408e-15
1.35661e-14
2.72272e-14
3.53805e-14
3.02612e-14
1.88822e-14
9.47153e-15
4.38957e-15
2.25622e-15
1.18802e-15
9.23823e-16
6.51652e-16
5.79532e-16
5.83221e-16
3.20631e-16
8.02018e-16
3.9835e-16
)
;

boundaryField
{
    inlet
    {
        type            calculated;
        value           nonuniform List<scalar> 
20
(
1.65803e-34
1.69638e-32
1.70968e-32
8.11213e-33
7.9367e-33
7.00771e-33
6.54619e-33
6.00164e-33
5.18731e-33
4.27086e-33
3.21627e-33
2.36841e-33
2.24757e-33
2.08233e-33
1.1154e-33
1.43623e-33
4.33045e-34
6.887e-33
5.8024e-33
1.45651e-34
)
;
    }
    outlet
    {
        type            calculated;
        value           nonuniform List<scalar> 
27
(
1.71532e-34
1.19887e-36
1.64113e-33
2.92531e-33
1.19208e-34
5.30234e-33
2.12638e-33
4.69e-33
1.32544e-33
1.07643e-33
2.56358e-34
1.21809e-33
1.16908e-33
3.19605e-33
2.16885e-33
1.557e-33
2.39742e-36
6.99295e-39
5.10468e-37
9.85703e-38
1.55949e-37
4.82943e-37
5.69881e-39
1.15233e-35
3.15122e-34
1.75587e-33
6.09944e-38
)
;
    }
    lowerWall
    {
        type            fixedValue;
        value           uniform 0;
    }
    upperWall
    {
        type            fixedValue;
        value           uniform 0;
    }
    defaultFaces
    {
        type            empty;
    }
}


// ************************************************************************* //
