/*--------------------------------*- C++ -*----------------------------------*\
| =========                 |                                                 |
| \\      /  F ield         | OpenFOAM: The Open Source CFD Toolbox           |
|  \\    /   O peration     | Version:  2112                                  |
|   \\  /    A nd           | Website:  www.openfoam.com                      |
|    \\/     M anipulation  |                                                 |
\*---------------------------------------------------------------------------*/
FoamFile
{
    version     2.0;
    format      ascii;
    arch        "LSB;label=32;scalar=64";
    class       volScalarField;
    location    "0.31";
    object      p;
}
// * * * * * * * * * * * * * * * * * * * * * * * * * * * * * * * * * * * * * //

dimensions      [0 2 -2 0 0 0 0];

internalField   nonuniform List<scalar> 
1880
(
0.00322189
0.00308965
0.00299572
0.00294819
0.00291949
0.00289956
0.00287922
0.00286032
0.00284502
0.00283176
0.00282101
0.00281543
0.00280955
0.0028102
0.00281318
0.00282062
0.00283267
0.00284928
0.00287527
0.00290819
0.00295001
0.00299486
0.00305954
0.00312761
0.00321972
0.00334331
0.00346609
0.00362846
0.00379834
0.00391639
0.0030412
0.00301338
0.00296983
0.00293373
0.00290513
0.00288411
0.00286577
0.00284887
0.00283732
0.00282249
0.00281231
0.00280476
0.00280009
0.00279806
0.00280032
0.00280682
0.00281539
0.00283235
0.00285163
0.00289009
0.00291289
0.00296872
0.00300734
0.00308773
0.00316577
0.00327756
0.00339933
0.00354683
0.00368736
0.00384086
0.00300793
0.00299032
0.00295917
0.0029272
0.00289976
0.00287709
0.00285821
0.00284179
0.0028305
0.00281571
0.00280354
0.00279653
0.00278953
0.00278437
0.00278394
0.00278942
0.00279709
0.00280588
0.00282234
0.0028482
0.002874
0.00291311
0.0029534
0.00301318
0.00307398
0.00315934
0.00323707
0.00332896
0.00341348
0.00345247
0.0029498
0.00294156
0.00292473
0.00290255
0.00288176
0.00286143
0.00284363
0.002827
0.00281661
0.00280154
0.00278898
0.0027815
0.00277288
0.00276657
0.00276072
0.00276663
0.00276665
0.00277336
0.002782
0.00280121
0.00282009
0.00284485
0.00287622
0.00290958
0.00295968
0.00300405
0.00305415
0.00310603
0.00313306
0.00313583
0.00292099
0.0029157
0.002905
0.00288732
0.00287052
0.00285111
0.00283367
0.00281645
0.00280538
0.00278962
0.00277574
0.00276695
0.00275686
0.00274722
0.00273843
0.00273959
0.00273677
0.00273762
0.00273911
0.00275024
0.0027602
0.0027735
0.00279033
0.00280987
0.00283509
0.00285461
0.00287385
0.00288293
0.00287161
0.00283772
0.00289356
0.00288936
0.0028814
0.00286693
0.00285317
0.00283603
0.00281931
0.00280241
0.00279054
0.00277451
0.00275872
0.00274907
0.00273724
0.00272477
0.00271282
0.00270874
0.00270374
0.00269605
0.00269313
0.00269372
0.00269673
0.00269776
0.00270068
0.00270301
0.0027083
0.00270428
0.00269587
0.00267339
0.00263374
0.00256457
0.00287289
0.00286938
0.00286329
0.00285081
0.00283911
0.00282333
0.00280712
0.00278996
0.00277713
0.00276017
0.00274248
0.00273117
0.00271709
0.00270198
0.00268616
0.00267798
0.00266831
0.00265476
0.00264496
0.00263699
0.00263133
0.00262099
0.00261023
0.00259817
0.00258406
0.00256058
0.0025288
0.00248158
0.00241515
0.00232504
0.00285607
0.00285303
0.00284759
0.00283619
0.0028252
0.00281044
0.00279404
0.00277681
0.00276275
0.0027449
0.00272522
0.00271178
0.00269606
0.00267696
0.00265878
0.00264482
0.00263176
0.00261154
0.00259512
0.00257991
0.00256426
0.00254392
0.00252139
0.00249456
0.00246558
0.00242426
0.00237349
0.00230612
0.00222069
0.00211225
0.00284295
0.00284004
0.00283483
0.00282391
0.00281318
0.00279881
0.00278198
0.00276437
0.00274895
0.00273004
0.00270816
0.00269282
0.00267463
0.00265231
0.00263073
0.0026122
0.00259489
0.00256853
0.00254582
0.00252325
0.00249871
0.00246935
0.00243501
0.00239632
0.00235345
0.00229733
0.00223109
0.00214817
0.0020468
0.00192555
0.00283319
0.00283036
0.00282498
0.00281413
0.00280305
0.00278861
0.00277096
0.00275261
0.00273585
0.00271539
0.00269169
0.00267373
0.00265357
0.00262751
0.00260289
0.00258005
0.0025579
0.00252663
0.0024969
0.00246812
0.00243545
0.00239695
0.00235335
0.00230331
0.00224897
0.00218111
0.00210157
0.00200642
0.00189379
0.00176236
0.00282685
0.00282393
0.00281809
0.00280692
0.00279505
0.00278007
0.00276118
0.00274182
0.00272348
0.00270147
0.00267569
0.00265541
0.00263288
0.00260352
0.00257555
0.00254868
0.002522
0.00248593
0.0024498
0.00241518
0.00237503
0.00232872
0.00227647
0.00221692
0.00215304
0.00207528
0.00198507
0.00188087
0.00175943
0.00162042
0.00282402
0.00282088
0.00281434
0.00280246
0.00278947
0.00277349
0.00275317
0.0027324
0.00271255
0.00268863
0.00266103
0.00263819
0.00261338
0.00258078
0.0025493
0.00251906
0.0024877
0.00244743
0.00240536
0.00236505
0.00231885
0.002265
0.00220544
0.00213802
0.00206553
0.00198019
0.00188171
0.00177023
0.0016427
0.00149835
0.002825
0.00282136
0.00281373
0.00280061
0.00278589
0.00276825
0.00274603
0.00272368
0.00270217
0.00267647
0.00264703
0.00262184
0.00259465
0.00255904
0.00252421
0.00249082
0.00245527
0.00241095
0.00236354
0.00231815
0.00226658
0.00220634
0.00214038
0.00206638
0.00198684
0.00189541
0.00179033
0.00167338
0.00154157
0.00139345
0.00283058
0.00282639
0.00281751
0.00280291
0.00278619
0.00276662
0.00274234
0.00271819
0.00269489
0.00266704
0.00263572
0.0026081
0.00257822
0.00253968
0.00250153
0.00246533
0.00242579
0.00237744
0.00232549
0.00227528
0.00221915
0.00215334
0.00208164
0.00200243
0.00191698
0.0018207
0.00171092
0.00158982
0.00145532
0.00130528
0.00284063
0.00283492
0.00282357
0.00280606
0.00278617
0.00276375
0.00273716
0.00271116
0.00268616
0.00265654
0.0026236
0.00259394
0.00256164
0.00252066
0.00247998
0.00244142
0.00239831
0.00234622
0.00229048
0.00223624
0.00217615
0.00210567
0.00202906
0.00194552
0.00185529
0.00175509
0.00164191
0.00151786
0.00138168
0.00123052
0.00285981
0.00285255
0.00283811
0.00281676
0.00279278
0.002767
0.00273795
0.00271012
0.00268334
0.00265187
0.00261729
0.00258518
0.00254997
0.00250642
0.00246317
0.00242193
0.00237506
0.00231927
0.00226033
0.00220235
0.00213846
0.00206393
0.00198303
0.00189599
0.00180202
0.0016987
0.00158343
0.00145763
0.00132078
0.00117026
0.00288051
0.00286896
0.00284866
0.00282181
0.00279357
0.00276507
0.00273444
0.00270537
0.00267709
0.0026439
0.00260769
0.00257323
0.00253543
0.00249023
0.00244543
0.00240191
0.00235182
0.00229336
0.00223269
0.00217194
0.00210461
0.00202665
0.0019421
0.00185193
0.00175493
0.00164923
0.00153296
0.00140681
0.0012701
0.00111979
0.00293394
0.00291188
0.00287762
0.00283956
0.00280423
0.00277206
0.0027398
0.00270917
0.00267861
0.00264323
0.00260524
0.00256833
0.00252812
0.00248186
0.00243593
0.0023899
0.00233665
0.00227572
0.00221292
0.00214867
0.00207752
0.0019967
0.0019093
0.00181644
0.00171695
0.0016094
0.00149284
0.00136718
0.00123171
0.00108403
0.00296284
0.00292856
0.00288366
0.00284065
0.00280345
0.00277116
0.00273855
0.00270667
0.00267439
0.00263759
0.00259848
0.0025594
0.00251733
0.00247109
0.00242405
0.00237433
0.00231727
0.00225509
0.0021921
0.00212579
0.00205169
0.00196838
0.00187761
0.00178142
0.00167927
0.00157096
0.00145611
0.00133317
0.00120022
0.00105519
0.0031425
0.00300295
0.0029058
0.00285135
0.00281593
0.00278317
0.00274811
0.00271269
0.00267694
0.00263881
0.00259967
0.00255953
0.00251615
0.0024699
0.00242197
0.00237038
0.00231257
0.00225019
0.00218532
0.0021164
0.00204098
0.00195776
0.00186668
0.00176928
0.00166572
0.00155644
0.00144135
0.00131932
0.0011883
0.0010469
0.00405844
0.00381187
0.00354805
0.00297451
0.00240576
0.00176703
0.000780951
0.000122075
-0.00129785
-0.00249129
0.00390268
0.00349832
0.00310167
0.00256494
0.00194354
0.00125891
0.00034786
-0.000480352
-0.0016785
-0.00294738
0.00348408
0.0031414
0.0027515
0.00230011
0.00166474
0.00111127
0.000199515
-0.000489646
-0.00161165
-0.00251711
0.00314362
0.00280044
0.00240214
0.00192874
0.00137195
0.000761289
7.94183e-06
-0.000790055
-0.00168836
-0.00261789
0.00278127
0.0024844
0.00208162
0.00167538
0.00112971
0.000589418
-0.000103748
-0.000829509
-0.00161926
-0.00242784
0.00248677
0.00219653
0.00182904
0.00140617
0.000927403
0.000379642
-0.000225973
-0.000921491
-0.00162241
-0.00234376
0.00221874
0.00195286
0.001591
0.00120072
0.000751022
0.000248287
-0.00030917
-0.000937314
-0.0015545
-0.00217558
0.00198993
0.00173215
0.00139728
0.00101576
0.000605183
0.000129817
-0.000380521
-0.000950632
-0.00151217
-0.0020613
0.00178838
0.0015452
0.00122602
0.000867553
0.000482712
4.42194e-05
-0.000429488
-0.000943807
-0.00144317
-0.00192719
0.00161619
0.00138272
0.00108373
0.000742311
0.000383268
-2.30525e-05
-0.000462706
-0.000927909
-0.00138049
-0.00181833
0.00146691
0.00124405
0.000961235
0.000640717
0.000301948
-7.47334e-05
-0.000481471
-0.000904202
-0.00131383
-0.00170962
0.00134089
0.00112692
0.000860658
0.000558049
0.000238479
-0.000111553
-0.000487937
-0.000874783
-0.00125009
-0.00161379
0.00123231
0.00102667
0.000774967
0.000490511
0.000188174
-0.000139166
-0.00048749
-0.000843114
-0.00118893
-0.00152455
0.00114329
0.0009452
0.000706994
0.000438392
0.000152035
-0.000155381
-0.000479356
-0.000808991
-0.00113106
-0.00144423
0.00106665
0.000874564
0.000648655
0.000395183
0.00012381
-0.000165963
-0.000468715
-0.000776243
-0.00107819
-0.00137232
0.00100787
0.000821711
0.000606285
0.000365507
0.000107369
-0.000167342
-0.000453089
-0.000743267
-0.00102938
-0.00130857
0.00095667
0.000774499
0.000568769
0.00034028
9.48433e-05
-0.000166016
-0.000437175
-0.000713065
-0.000986194
-0.00125334
0.000923822
0.000746018
0.000547536
0.00032806
9.223e-05
-0.000158176
-0.000418691
-0.000684507
-0.000948583
-0.00120698
0.000896604
0.000722175
0.000530519
0.000320236
9.36437e-05
-0.000147527
-0.000398811
-0.000656473
-0.000914235
-0.00116674
0.000892335
0.000720163
0.000530509
0.000322987
9.96056e-05
-0.000137988
-0.000385488
-0.000640103
-0.000895454
-0.00114827
-0.00566734
-0.00589185
-0.00595332
-0.00608544
-0.00713621
-0.00937184
-0.0121628
-0.0136215
-0.0136303
-0.0123181
-0.010199
-0.00753239
-0.00467056
-0.00197432
0.000249413
0.00173413
0.00253406
0.00283182
0.00280792
0.00261829
0.00235243
0.00206746
0.00179314
0.00154262
0.00131869
0.00111994
0.000944447
0.000791254
0.000658673
0.000545318
0.000449141
0.000368065
0.000299521
0.000241394
0.000191379
0.00014785
0.000109258
7.45228e-05
4.29311e-05
1.35125e-05
-0.00578619
-0.00603939
-0.00600525
-0.00628128
-0.00781221
-0.0104354
-0.0132424
-0.014589
-0.0143956
-0.0129376
-0.010702
-0.00802607
-0.00510784
-0.00233937
-2.16099e-05
0.00154006
0.00236923
0.00269893
0.00270189
0.00253423
0.00228725
0.00201726
0.00175378
0.00151006
0.00129118
0.00109686
0.000925577
0.000776365
0.000647413
0.000537256
0.000443823
0.000364955
0.000298156
0.000241211
0.000192011
0.000148839
0.000110419
7.55599e-05
4.37298e-05
1.39916e-05
-0.00557145
-0.00585936
-0.00614634
-0.0069874
-0.00894308
-0.0117859
-0.0147231
-0.0160003
-0.0156099
-0.0139199
-0.0115405
-0.00883268
-0.00589115
-0.00302749
-0.000547772
0.00113303
0.00203156
0.0024042
0.00245377
0.00232897
0.0021187
0.00188059
0.00164499
0.00142536
0.001227
0.00104985
0.000892925
0.000755538
0.0006364
0.00053356
0.000444785
0.000368377
0.000302559
0.000245626
0.00019595
0.000152187
0.000113136
7.77108e-05
4.51793e-05
1.46791e-05
-0.00531496
-0.00547719
-0.00559247
-0.00713368
-0.00979061
-0.0130419
-0.016063
-0.0173681
-0.0168295
-0.0149032
-0.0123747
-0.00969015
-0.00678891
-0.00382549
-0.00120769
0.000602267
0.00158537
0.00200488
0.00211192
0.00205135
0.00189706
0.001703
0.00150409
0.00131546
0.00114227
0.000986199
0.000847184
0.000723641
0.000614079
0.000517961
0.000434046
0.000361084
0.000297784
0.000242697
0.00019442
0.00015162
0.000113209
7.81369e-05
4.56787e-05
1.50547e-05
-0.00515528
-0.00574791
-0.00570663
-0.0075247
-0.0101885
-0.013468
-0.0165915
-0.0180454
-0.0175822
-0.0156049
-0.0130186
-0.0104196
-0.00761989
-0.00461177
-0.00190214
1.66564e-05
0.00108894
0.00155969
0.00171457
0.0017176
0.0016322
0.00149734
0.00134391
0.00118882
0.00104168
0.000907538
0.000787419
0.00067992
0.000583648
0.000497021
0.00041968
0.000351376
0.000291258
0.000238348
0.000191568
0.00014979
0.00011209
7.75221e-05
4.5342e-05
1.49034e-05
-0.00478311
-0.00555231
-0.0049852
-0.00708227
-0.010057
-0.0134274
-0.0166565
-0.0181765
-0.0177915
-0.0157762
-0.0131723
-0.0106409
-0.00801952
-0.00512324
-0.00247534
-0.00055703
0.000550206
0.00109191
0.00132064
0.00138922
0.00136267
0.00128294
0.00117853
0.00106341
0.000944575
0.000831054
0.000728525
0.000635772
0.000550459
0.000471744
0.000400426
0.000336644
0.000279949
0.000229735
0.000185204
0.000145354
0.000109121
7.57824e-05
4.45859e-05
1.47954e-05
-0.00473027
-0.00581984
-0.00476851
-0.00690013
-0.00955094
-0.0126674
-0.0155075
-0.0170107
-0.0168604
-0.0150948
-0.012704
-0.0103276
-0.00792485
-0.00526706
-0.0028095
-0.00101602
2.84817e-05
0.000606991
0.000913278
0.00106498
0.00110972
0.00108287
0.00101856
0.00093688
0.000845142
0.000751317
0.000663298
0.000583193
0.000509505
0.000440761
0.000376874
0.000318551
0.00026612
0.000219298
0.000177286
0.000139287
0.000104673
7.2665e-05
4.26343e-05
1.40303e-05
-0.00513202
-0.00397632
-0.00446452
-0.00631168
-0.00887407
-0.0115305
-0.0138953
-0.0152862
-0.0153631
-0.0140213
-0.0119567
-0.00978114
-0.00756094
-0.00515916
-0.00295466
-0.00131643
-0.000348712
0.000215778
0.000554107
0.000752872
0.000853313
0.000882814
0.000862338
0.000809836
0.000740504
0.000666506
0.000594834
0.00052659
0.000461273
0.000400617
0.000345205
0.000294165
0.000247174
0.000204334
0.000165708
0.000130868
9.9e-05
6.91847e-05
4.08921e-05
1.35987e-05
-0.00399857
-0.00489825
-0.00540588
-0.00642216
-0.0084302
-0.010712
-0.0126384
-0.0137402
-0.013803
-0.0127061
-0.010917
-0.008976
-0.00697442
-0.00485726
-0.00296032
-0.00154381
-0.000645621
-7.15364e-05
0.000300455
0.00051649
0.000632027
0.000686781
0.000698624
0.000674817
0.000626768
0.000570204
0.000513563
0.000459789
0.000409335
0.000360544
0.000312664
0.0002675
0.000226159
0.000188333
0.000153498
0.000121269
9.14186e-05
6.35203e-05
3.74861e-05
1.23793e-05
-0.0035361
-0.00441544
-0.00494104
-0.00598415
-0.00775319
-0.00959724
-0.0110446
-0.0118598
-0.0119386
-0.0111014
-0.00960439
-0.00790684
-0.00617511
-0.00446816
-0.00294097
-0.00175463
-0.000946258
-0.000386542
8.5505e-06
0.000270144
0.000420482
0.000498049
0.000531943
0.000532078
0.000506513
0.000468378
0.000427762
0.000385161
0.000340303
0.000297864
0.000261538
0.000229225
0.00019754
0.000166356
0.000136868
0.000109329
8.36468e-05
5.91632e-05
3.50622e-05
1.16605e-05
-0.00331733
-0.00410849
-0.00485363
-0.00574629
-0.00703194
-0.00835791
-0.00937536
-0.00996857
-0.0100239
-0.00938739
-0.00824197
-0.00689601
-0.00549178
-0.00414326
-0.00293641
-0.00192794
-0.00117607
-0.000632918
-0.00024965
1.02058e-05
0.000185192
0.000297487
0.00035897
0.000381951
0.000379043
0.000365412
0.000345053
0.000316518
0.000284752
0.00025484
0.000226059
0.000197276
0.000169876
0.000144591
0.000120621
9.70253e-05
7.37504e-05
5.16242e-05
3.05241e-05
1.00799e-05
-0.00305324
-0.00377472
-0.00450353
-0.00525284
-0.00620024
-0.00718603
-0.0079473
-0.00838328
-0.00842232
-0.00796545
-0.00710933
-0.00608083
-0.00497641
-0.00387235
-0.00286458
-0.00200815
-0.00134296
-0.000842704
-0.00046932
-0.000201586
-1.36469e-05
0.000115058
0.000195651
0.000237922
0.000254846
0.000258753
0.000255205
0.000243262
0.000222204
0.000196781
0.000173549
0.000154468
0.000137158
0.000119319
0.000101224
8.29319e-05
6.46654e-05
4.66725e-05
2.81077e-05
9.46645e-06
-0.00285598
-0.00346631
-0.00414141
-0.00480673
-0.00555167
-0.00630769
-0.00688239
-0.00719561
-0.00721048
-0.00686802
-0.00621011
-0.00539971
-0.00452224
-0.00363174
-0.0027914
-0.00205279
-0.00145456
-0.000992307
-0.000636348
-0.00036583
-0.000168481
-2.95379e-05
6.60796e-05
0.000129011
0.000163271
0.000176871
0.000181757
0.00017938
0.000169825
0.000159783
0.00015205
0.000142057
0.000126882
0.000107695
8.88291e-05
7.09958e-05
5.40372e-05
3.77115e-05
2.23837e-05
7.49837e-06
-0.00265945
-0.00318839
-0.00378947
-0.00438522
-0.00499313
-0.00557403
-0.0060076
-0.00623493
-0.00623832
-0.0059888
-0.00548753
-0.00483963
-0.0041308
-0.0034084
-0.00271479
-0.00208219
-0.00154432
-0.00111775
-0.000785124
-0.000527427
-0.000328585
-0.000180213
-7.57773e-05
-1.59325e-06
5.04038e-05
8.32492e-05
0.000100116
0.00010634
0.000106971
0.000102114
9.34639e-05
8.43703e-05
7.8255e-05
7.40743e-05
6.85603e-05
6.01124e-05
4.92563e-05
3.59023e-05
2.18704e-05
7.37353e-06
-0.00249071
-0.00295083
-0.00347361
-0.0040018
-0.00451489
-0.00497828
-0.00531832
-0.0054973
-0.0054964
-0.00529612
-0.00490767
-0.00438992
-0.00380886
-0.00321115
-0.00262964
-0.00208975
-0.00161601
-0.00122601
-0.000913178
-0.000664922
-0.000467064
-0.000311423
-0.000193821
-0.000108575
-4.69562e-05
-3.87651e-06
2.75136e-05
5.15778e-05
6.38667e-05
6.39773e-05
6.08614e-05
5.85369e-05
5.64264e-05
5.30963e-05
4.68244e-05
3.91669e-05
3.04261e-05
2.19118e-05
1.31704e-05
4.46917e-06
-0.00233097
-0.00274017
-0.00319441
-0.00365886
-0.00409686
-0.00447279
-0.00474101
-0.00488515
-0.00488861
-0.0047306
-0.00442573
-0.0040128
-0.00353626
-0.00303597
-0.00254209
-0.00207869
-0.00166349
-0.00130913
-0.00101464
-0.000772102
-0.000576485
-0.000421809
-0.000300186
-0.000204958
-0.000133125
-8.16169e-05
-4.53164e-05
-1.80871e-05
1.6035e-06
1.54063e-05
2.73846e-05
3.79156e-05
4.35479e-05
4.47264e-05
4.26646e-05
3.82968e-05
3.21164e-05
2.42485e-05
1.50774e-05
5.13676e-06
-0.00218572
-0.00255368
-0.00295176
-0.00335739
-0.00373515
-0.00405377
-0.00427862
-0.00439527
-0.00439809
-0.00427277
-0.00403019
-0.00369851
-0.00330529
-0.0028844
-0.00246638
-0.00206801
-0.00170072
-0.00137757
-0.00110546
-0.000877959
-0.000687404
-0.000530608
-0.000405937
-0.000306587
-0.000224864
-0.00016009
-0.000108264
-6.9367e-05
-4.25144e-05
-2.30186e-05
-9.95399e-06
-8.57257e-07
5.39408e-06
9.23377e-06
1.07295e-05
1.04097e-05
8.75988e-06
6.42485e-06
3.86737e-06
1.1659e-06
-0.00205226
-0.00238745
-0.00273847
-0.00309373
-0.0034232
-0.00369507
-0.00388508
-0.00398719
-0.00399483
-0.00389604
-0.00369887
-0.00342817
-0.00310552
-0.00275383
-0.00239654
-0.00204951
-0.00172467
-0.00143288
-0.00117936
-0.00096214
-0.000777464
-0.000620678
-0.000488325
-0.000379584
-0.000294046
-0.000225811
-0.000171926
-0.00012726
-9.0261e-05
-5.96195e-05
-3.48791e-05
-1.57783e-05
-1.89145e-06
7.36775e-06
1.28511e-05
1.52302e-05
1.50858e-05
1.28319e-05
8.5824e-06
3.06919e-06
-0.00193177
-0.00223858
-0.00255274
-0.00286697
-0.00315621
-0.00339447
-0.00356197
-0.00365124
-0.00366158
-0.0035853
-0.00342594
-0.00320319
-0.00293562
-0.0026393
-0.00233234
-0.00203124
-0.00174579
-0.00148284
-0.00124759
-0.00104072
-0.000861042
-0.0007074
-0.00057752
-0.000467195
-0.000371992
-0.00029236
-0.000226874
-0.000173673
-0.000130523
-9.71238e-05
-7.16177e-05
-5.187e-05
-3.66975e-05
-2.53806e-05
-1.7274e-05
-1.16173e-05
-7.75635e-06
-5.07746e-06
-2.88211e-06
-1.03887e-06
-0.00182298
-0.00210719
-0.00239143
-0.00267132
-0.00292802
-0.00313833
-0.00328742
-0.00337064
-0.00338359
-0.00332329
-0.00319624
-0.00301355
-0.0027886
-0.00253859
-0.00227823
-0.00201651
-0.00176202
-0.00152373
-0.00130633
-0.00111105
-0.00093769
-0.000784166
-0.000647998
-0.000529826
-0.000430552
-0.000347691
-0.000278035
-0.000218958
-0.000168802
-0.000126454
-9.15848e-05
-6.36429e-05
-4.18406e-05
-2.54486e-05
-1.3539e-05
-5.44367e-06
-4.75697e-07
1.94867e-06
2.21291e-06
9.96876e-07
-0.00172613
-0.00199152
-0.00225199
-0.00250455
-0.00273439
-0.0029232
-0.00305885
-0.00313545
-0.00315205
-0.00310672
-0.00300284
-0.00285178
-0.00266566
-0.00245498
-0.00223062
-0.0020025
-0.00177856
-0.00156479
-0.00136381
-0.00117701
-0.00100706
-0.000855307
-0.000720643
-0.00060098
-0.000495046
-0.00040292
-0.000324346
-0.000257612
-0.000202009
-0.000157196
-0.0001214
-9.27512e-05
-7.00161e-05
-5.22412e-05
-3.81248e-05
-2.71337e-05
-1.86417e-05
-1.20528e-05
-6.74939e-06
-2.37103e-06
-0.00164061
-0.00189119
-0.00213265
-0.00236309
-0.00257151
-0.00274256
-0.00286592
-0.00293885
-0.00295802
-0.00292322
-0.00284025
-0.00271659
-0.00256049
-0.0023822
-0.00219147
-0.00199492
-0.00179726
-0.00160343
-0.00141688
-0.00123991
-0.0010752
-0.000923655
-0.000784282
-0.000657295
-0.000545085
-0.000448356
-0.000364923
-0.00029322
-0.000231806
-0.000179614
-0.000136172
-0.000100864
-7.27719e-05
-5.15331e-05
-3.47257e-05
-2.23803e-05
-1.34682e-05
-7.26025e-06
-3.17127e-06
-8.06506e-07
-0.00156617
-0.00180496
-0.00203154
-0.00224459
-0.00243543
-0.00259192
-0.002706
-0.00277456
-0.00279575
-0.00277058
-0.00270361
-0.00260133
-0.00247189
-0.00232333
-0.00216161
-0.00199122
-0.00181738
-0.00164429
-0.00147315
-0.00130435
-0.00114091
-0.00098728
-0.000845048
-0.000714577
-0.000597074
-0.000492703
-0.000401404
-0.000322544
-0.000256126
-0.000201352
-0.000156727
-0.000120515
-9.13159e-05
-6.74429e-05
-4.92886e-05
-3.50957e-05
-2.41264e-05
-1.55773e-05
-8.75294e-06
-2.97332e-06
-0.00150272
-0.0017329
-0.00194812
-0.00214685
-0.00232257
-0.00246663
-0.0025725
-0.00263756
-0.00266016
-0.00264174
-0.00258762
-0.00250434
-0.00239837
-0.00227509
-0.00213897
-0.00199435
-0.00184386
-0.00168816
-0.0015284
-0.0013669
-0.0012072
-0.00105243
-0.000904514
-0.000766044
-0.00063982
-0.000528305
-0.000431128
-0.000347359
-0.000275928
-0.000216098
-0.000166517
-0.000126002
-9.32768e-05
-6.71822e-05
-4.71024e-05
-3.16731e-05
-2.00421e-05
-1.14991e-05
-5.44893e-06
-1.43489e-06
-0.00145016
-0.00167497
-0.00188287
-0.00207139
-0.0022347
-0.00236745
-0.00246561
-0.00252642
-0.00254895
-0.0025357
-0.00249186
-0.0024235
-0.002337
-0.00223753
-0.00212689
-0.00200612
-0.00187528
-0.0017346
-0.00158489
-0.00142816
-0.00126763
-0.00110796
-0.000954071
-0.00081002
-0.000677869
-0.000559126
-0.000454855
-0.000365265
-0.000289497
-0.000226522
-0.000175002
-0.0001334
-0.000100099
-7.36944e-05
-5.30577e-05
-3.70226e-05
-2.4772e-05
-1.53581e-05
-8.23829e-06
-2.58703e-06
-0.00140617
-0.00162762
-0.00183086
-0.00201194
-0.00216692
-0.00229199
-0.00238367
-0.00243984
-0.00246135
-0.00245122
-0.00241467
-0.00235872
-0.00228906
-0.00220925
-0.00212174
-0.00202511
-0.00191488
-0.00178783
-0.00164427
-0.0014876
-0.00132281
-0.00115608
-0.000993808
-0.000841293
-0.000701456
-0.00057644
-0.000467249
-0.000373887
-0.000295247
-0.000230041
-0.000176602
-0.000133369
-9.86597e-05
-7.11397e-05
-4.96078e-05
-3.3018e-05
-2.05151e-05
-1.13148e-05
-4.98601e-06
-9.43756e-07
-0.00139014
-0.00161099
-0.0018098
-0.00198556
-0.00213558
-0.0022563
-0.00234435
-0.00239811
-0.00241873
-0.00240945
-0.0023758
-0.00232471
-0.00226165
-0.00218999
-0.00211122
-0.00202321
-0.00192068
-0.0017997
-0.00166043
-0.00150616
-0.00134178
-0.00117379
-0.00100924
-0.00085397
-0.000711683
-0.000584537
-0.000473376
-0.000378225
-0.000298041
-0.000231651
-0.000177406
-0.000133807
-9.90118e-05
-7.16654e-05
-5.03113e-05
-3.39271e-05
-2.15519e-05
-1.23514e-05
-5.91441e-06
-1.36097e-06
)
;

boundaryField
{
    inlet
    {
        type            zeroGradient;
    }
    outlet
    {
        type            fixedValue;
        value           uniform 0;
    }
    lowerWall
    {
        type            zeroGradient;
    }
    upperWall
    {
        type            zeroGradient;
    }
    defaultFaces
    {
        type            empty;
    }
}


// ************************************************************************* //
