/*--------------------------------*- C++ -*----------------------------------*\
| =========                 |                                                 |
| \\      /  F ield         | OpenFOAM: The Open Source CFD Toolbox           |
|  \\    /   O peration     | Version:  2112                                  |
|   \\  /    A nd           | Website:  www.openfoam.com                      |
|    \\/     M anipulation  |                                                 |
\*---------------------------------------------------------------------------*/
FoamFile
{
    version     2.0;
    format      ascii;
    arch        "LSB;label=32;scalar=64";
    class       volVectorField;
    location    "0.31";
    object      U;
}
// * * * * * * * * * * * * * * * * * * * * * * * * * * * * * * * * * * * * * //

dimensions      [0 1 -1 0 0 0 0];

internalField   nonuniform List<vector> 
1880
(
(0.0989663 0.000619824 0)
(0.0984721 0.00113503 0)
(0.0972443 0.00132471 0)
(0.0959566 0.00130092 0)
(0.0940421 0.00136973 0)
(0.0925292 0.00137285 0)
(0.0904723 0.00142902 0)
(0.0890389 0.00141437 0)
(0.0868432 0.00140485 0)
(0.0854708 0.00144202 0)
(0.0831522 0.00139262 0)
(0.08171 0.00144784 0)
(0.0792585 0.00127466 0)
(0.0779439 0.00149772 0)
(0.075305 0.00132239 0)
(0.0738429 0.00166776 0)
(0.0709896 0.00111759 0)
(0.0695936 0.00177928 0)
(0.0664137 0.000967469 0)
(0.0650988 0.00224805 0)
(0.0611154 0.0010345 0)
(0.0600734 0.00249379 0)
(0.054838 0.00118439 0)
(0.0545728 0.00203184 0)
(0.0478296 0.00161446 0)
(0.0485586 0.00184081 0)
(0.0398886 0.00214707 0)
(0.0405999 0.00340308 0)
(0.0299127 0.00231398 0)
(0.0283928 0.0067877 0)
(0.0997726 0.000751006 0)
(0.100619 0.00132404 0)
(0.100273 0.00176373 0)
(0.101441 0.00162646 0)
(0.100598 0.00196778 0)
(0.101771 0.00178462 0)
(0.100604 0.00218412 0)
(0.101794 0.00198544 0)
(0.100391 0.00230993 0)
(0.101493 0.00205608 0)
(0.100159 0.00249837 0)
(0.1009 0.00215774 0)
(0.099769 0.00273749 0)
(0.0997268 0.00211172 0)
(0.0995664 0.00301083 0)
(0.0979149 0.00233527 0)
(0.0992596 0.00330462 0)
(0.0958992 0.0025903 0)
(0.0979496 0.00357771 0)
(0.094113 0.00292341 0)
(0.0954465 0.00391179 0)
(0.0923454 0.00388 0)
(0.0926452 0.00398136 0)
(0.0889867 0.00532909 0)
(0.0892861 0.00422564 0)
(0.0842404 0.00586239 0)
(0.0839663 0.00653942 0)
(0.0779314 0.00645745 0)
(0.0774613 0.00967489 0)
(0.0657835 0.0107481 0)
(0.0998481 0.000279021 0)
(0.100417 0.000611655 0)
(0.100245 0.00107315 0)
(0.101128 0.0010169 0)
(0.100808 0.00145343 0)
(0.10158 0.00121959 0)
(0.101306 0.00170543 0)
(0.101784 0.00150403 0)
(0.101785 0.00184214 0)
(0.101694 0.00179411 0)
(0.10234 0.00201257 0)
(0.101604 0.00198071 0)
(0.102587 0.00244846 0)
(0.101571 0.00188571 0)
(0.102602 0.00304169 0)
(0.101369 0.00214841 0)
(0.102355 0.00321202 0)
(0.101159 0.00305089 0)
(0.101863 0.00311626 0)
(0.100734 0.00397374 0)
(0.100767 0.00408021 0)
(0.0999352 0.00388736 0)
(0.0998334 0.00622804 0)
(0.0977988 0.00390108 0)
(0.0990196 0.00763823 0)
(0.094775 0.00607996 0)
(0.0960902 0.00898248 0)
(0.0920605 0.00871879 0)
(0.0914948 0.0150481 0)
(0.0870769 0.0116642 0)
(0.0998748 0.000275426 0)
(0.100285 0.000551319 0)
(0.100037 0.00109 0)
(0.10077 0.00100055 0)
(0.100419 0.00158269 0)
(0.10121 0.00116548 0)
(0.100805 0.00192863 0)
(0.101555 0.00133897 0)
(0.101193 0.00220568 0)
(0.101582 0.00157322 0)
(0.101796 0.00239633 0)
(0.101509 0.00187797 0)
(0.102238 0.00267043 0)
(0.101478 0.00214825 0)
(0.102495 0.00300683 0)
(0.101505 0.00255087 0)
(0.102302 0.00336205 0)
(0.101679 0.00323843 0)
(0.102109 0.00378416 0)
(0.101311 0.00404112 0)
(0.10187 0.00471566 0)
(0.100588 0.00459111 0)
(0.101388 0.00634616 0)
(0.0999915 0.00555277 0)
(0.100148 0.00794166 0)
(0.0987954 0.00792137 0)
(0.0989078 0.0102832 0)
(0.096309 0.0108182 0)
(0.096867 0.0148832 0)
(0.095194 0.0166767 0)
(0.0999024 0.000176133 0)
(0.100202 0.000359037 0)
(0.100008 0.000750163 0)
(0.100528 0.00074529 0)
(0.100358 0.0011685 0)
(0.100861 0.000981264 0)
(0.100759 0.00144343 0)
(0.101192 0.00123917 0)
(0.101111 0.00167025 0)
(0.10134 0.00152455 0)
(0.10155 0.00193175 0)
(0.101505 0.00171429 0)
(0.101764 0.00246948 0)
(0.101715 0.0017803 0)
(0.101997 0.00310894 0)
(0.101788 0.00209662 0)
(0.101984 0.00351446 0)
(0.101863 0.00291772 0)
(0.101982 0.00398772 0)
(0.101797 0.00370688 0)
(0.101643 0.00536173 0)
(0.10163 0.00405233 0)
(0.101174 0.00721666 0)
(0.101309 0.00529528 0)
(0.100415 0.00865918 0)
(0.100706 0.00804544 0)
(0.0995588 0.0111628 0)
(0.0998103 0.0109731 0)
(0.0984912 0.0160811 0)
(0.0991958 0.0155559 0)
(0.0999044 0.000150115 0)
(0.100188 0.000303527 0)
(0.0999708 0.0006599 0)
(0.100449 0.000664305 0)
(0.100261 0.00109051 0)
(0.100723 0.000902275 0)
(0.100639 0.00140367 0)
(0.101024 0.00114101 0)
(0.101024 0.00165757 0)
(0.101127 0.00145511 0)
(0.10155 0.001861 0)
(0.101257 0.00179999 0)
(0.101798 0.00222297 0)
(0.101544 0.00210118 0)
(0.101965 0.00276983 0)
(0.101889 0.00242821 0)
(0.101813 0.00337747 0)
(0.102143 0.00305802 0)
(0.101975 0.00406415 0)
(0.102016 0.00396726 0)
(0.102003 0.00521928 0)
(0.101915 0.00473165 0)
(0.101705 0.00692512 0)
(0.101999 0.00605725 0)
(0.101229 0.00862474 0)
(0.101668 0.00877886 0)
(0.101177 0.011085 0)
(0.101206 0.0119719 0)
(0.10101 0.015269 0)
(0.101513 0.0166153 0)
(0.099917 0.000105746 0)
(0.100157 0.000255903 0)
(0.0999725 0.00049066 0)
(0.100361 0.000570209 0)
(0.100241 0.00082608 0)
(0.100586 0.000822382 0)
(0.100598 0.00107806 0)
(0.100904 0.00107803 0)
(0.100946 0.00132725 0)
(0.101095 0.00135296 0)
(0.101412 0.00162843 0)
(0.101332 0.00157497 0)
(0.10165 0.00214283 0)
(0.10164 0.00179055 0)
(0.101954 0.00276948 0)
(0.101954 0.00217547 0)
(0.101952 0.00332901 0)
(0.102288 0.00290458 0)
(0.102139 0.00405156 0)
(0.102422 0.00378157 0)
(0.102246 0.00533138 0)
(0.102462 0.00462506 0)
(0.102308 0.00696283 0)
(0.102658 0.0061184 0)
(0.102155 0.00866826 0)
(0.10281 0.00862464 0)
(0.102393 0.0112578 0)
(0.102948 0.0115867 0)
(0.102913 0.0151368 0)
(0.103747 0.0157915 0)
(0.0999228 7.85074e-05 0)
(0.100143 0.000211793 0)
(0.0999728 0.000385522 0)
(0.100321 0.000478912 0)
(0.100233 0.000673032 0)
(0.100514 0.000719082 0)
(0.100599 0.000902328 0)
(0.100812 0.000982 0)
(0.100982 0.00112825 0)
(0.100998 0.00129321 0)
(0.101487 0.00138056 0)
(0.101283 0.00159442 0)
(0.101715 0.0018157 0)
(0.101704 0.00188625 0)
(0.102004 0.00244608 0)
(0.102143 0.00223966 0)
(0.102087 0.00312727 0)
(0.102488 0.0028823 0)
(0.102507 0.0038964 0)
(0.102653 0.00385635 0)
(0.102791 0.00503282 0)
(0.102933 0.00488305 0)
(0.102972 0.00658483 0)
(0.103386 0.00635931 0)
(0.103179 0.00830629 0)
(0.10375 0.00872374 0)
(0.103835 0.0107522 0)
(0.104362 0.0115705 0)
(0.104754 0.0141661 0)
(0.105627 0.0153877 0)
(0.0999327 4.95117e-05 0)
(0.100127 0.000178725 0)
(0.0999848 0.00027533 0)
(0.100293 0.000402938 0)
(0.10024 0.000495863 0)
(0.100481 0.000623211 0)
(0.100596 0.000686937 0)
(0.100804 0.000862134 0)
(0.100971 0.000919182 0)
(0.10104 0.00112155 0)
(0.101481 0.00122441 0)
(0.101378 0.00135932 0)
(0.101749 0.00168789 0)
(0.101825 0.00165917 0)
(0.102141 0.00227381 0)
(0.102297 0.00209991 0)
(0.102322 0.0028844 0)
(0.102746 0.00277572 0)
(0.102822 0.00367008 0)
(0.103063 0.00370061 0)
(0.103263 0.00482653 0)
(0.10346 0.00475392 0)
(0.103702 0.00628583 0)
(0.104106 0.0062336 0)
(0.104139 0.00796724 0)
(0.104794 0.00838183 0)
(0.105074 0.0102852 0)
(0.105744 0.011015 0)
(0.106375 0.0133483 0)
(0.107352 0.0143792 0)
(0.0999417 2.703e-05 0)
(0.100113 0.000136984 0)
(0.1 0.000180609 0)
(0.100276 0.000309643 0)
(0.100262 0.000341069 0)
(0.100464 0.000501255 0)
(0.10063 0.000489757 0)
(0.1008 0.000726907 0)
(0.101021 0.000693334 0)
(0.101071 0.000985883 0)
(0.101548 0.000974955 0)
(0.101476 0.00123434 0)
(0.101829 0.00140523 0)
(0.101994 0.0015484 0)
(0.102287 0.0019789 0)
(0.102504 0.00198349 0)
(0.102609 0.0025969 0)
(0.102978 0.00264826 0)
(0.103256 0.00333986 0)
(0.103427 0.00360539 0)
(0.103781 0.00441356 0)
(0.104042 0.00467805 0)
(0.104379 0.00581593 0)
(0.104846 0.00608032 0)
(0.105103 0.00742711 0)
(0.105726 0.00804487 0)
(0.106272 0.00955091 0)
(0.106992 0.0104595 0)
(0.107824 0.0122413 0)
(0.108845 0.0134194 0)
(0.0999512 5.49614e-06 0)
(0.100102 9.27053e-05 0)
(0.100018 8.73334e-05 0)
(0.100271 0.000209459 0)
(0.10029 0.000188809 0)
(0.100478 0.000360232 0)
(0.100666 0.000302268 0)
(0.100847 0.000547219 0)
(0.101068 0.000496534 0)
(0.101163 0.000766388 0)
(0.101617 0.000781582 0)
(0.101618 0.000989687 0)
(0.101941 0.00118003 0)
(0.102176 0.00132058 0)
(0.102483 0.00169177 0)
(0.102735 0.00179227 0)
(0.102899 0.00226566 0)
(0.103291 0.00243119 0)
(0.103645 0.00300076 0)
(0.103861 0.00332115 0)
(0.104293 0.00404253 0)
(0.104617 0.00437034 0)
(0.10506 0.00534242 0)
(0.10559 0.00571528 0)
(0.105973 0.00684589 0)
(0.106655 0.00748466 0)
(0.107346 0.00877551 0)
(0.108135 0.0096451 0)
(0.109084 0.0111586 0)
(0.110184 0.0122016 0)
(0.0999604 -1.43094e-05 0)
(0.100092 4.08698e-05 0)
(0.10004 -3.8651e-06 0)
(0.100274 9.75828e-05 0)
(0.100329 4.02217e-05 0)
(0.100505 0.000208889 0)
(0.100725 0.000117969 0)
(0.10091 0.000369141 0)
(0.101144 0.000288513 0)
(0.101272 0.000570604 0)
(0.101716 0.000553179 0)
(0.101781 0.000783549 0)
(0.102079 0.000912909 0)
(0.102384 0.00111061 0)
(0.102708 0.00138816 0)
(0.102978 0.00157883 0)
(0.103228 0.00192711 0)
(0.103601 0.00219519 0)
(0.104062 0.00260962 0)
(0.104311 0.00304273 0)
(0.104788 0.00359337 0)
(0.105213 0.00403534 0)
(0.105715 0.00481328 0)
(0.106297 0.00529417 0)
(0.106821 0.00618881 0)
(0.107512 0.00689053 0)
(0.108325 0.00791297 0)
(0.109168 0.00880295 0)
(0.110202 0.00999011 0)
(0.111346 0.0110085 0)
(0.0999689 -3.48665e-05 0)
(0.100086 -2.24505e-05 0)
(0.100067 -0.000105532 0)
(0.100292 -4.09858e-05 0)
(0.100383 -0.000128196 0)
(0.100562 1.21665e-05 0)
(0.100806 -9.37416e-05 0)
(0.10101 0.00012436 0)
(0.101245 4.41608e-05 0)
(0.101416 0.000287998 0)
(0.101844 0.000281592 0)
(0.101968 0.000478768 0)
(0.102255 0.000589829 0)
(0.102613 0.000798514 0)
(0.102959 0.00101678 0)
(0.103256 0.00125427 0)
(0.103556 0.00152252 0)
(0.10396 0.00181842 0)
(0.104472 0.00217165 0)
(0.104776 0.00259343 0)
(0.10529 0.00308997 0)
(0.105794 0.00353797 0)
(0.106351 0.0042038 0)
(0.106994 0.00471289 0)
(0.107603 0.00545639 0)
(0.108327 0.00612325 0)
(0.109216 0.00698443 0)
(0.110107 0.0077918 0)
(0.111179 0.00878944 0)
(0.112357 0.00967404 0)
(0.0999766 -5.66914e-05 0)
(0.100081 -9.15854e-05 0)
(0.100095 -0.000208203 0)
(0.100316 -0.000178745 0)
(0.100443 -0.000282134 0)
(0.100631 -0.000163379 0)
(0.100902 -0.000271095 0)
(0.101125 -7.78875e-05 0)
(0.101367 -0.000154248 0)
(0.101581 6.75464e-05 0)
(0.101998 6.14559e-05 0)
(0.102176 0.000244108 0)
(0.102464 0.00032738 0)
(0.102866 0.000548659 0)
(0.103244 0.000714501 0)
(0.103553 0.000977914 0)
(0.10391 0.00117584 0)
(0.104341 0.00149476 0)
(0.104893 0.00177019 0)
(0.105263 0.00219237 0)
(0.105795 0.00260888 0)
(0.106373 0.00306076 0)
(0.106986 0.0036211 0)
(0.107662 0.00414558 0)
(0.108353 0.00474934 0)
(0.109103 0.00539684 0)
(0.110035 0.00609825 0)
(0.110969 0.00683788 0)
(0.112058 0.00764248 0)
(0.113249 0.00842923 0)
(0.0999834 -8.85011e-05 0)
(0.100088 -0.000196576 0)
(0.100143 -0.000362781 0)
(0.100377 -0.00039104 0)
(0.100549 -0.000515145 0)
(0.100756 -0.000436154 0)
(0.101052 -0.000542998 0)
(0.101298 -0.000396188 0)
(0.101544 -0.000466717 0)
(0.101795 -0.000286656 0)
(0.102204 -0.000293853 0)
(0.102424 -0.000146005 0)
(0.102721 -8.43538e-05 0)
(0.103154 0.000125889 0)
(0.103556 0.000255771 0)
(0.103882 0.000509198 0)
(0.104283 0.000671302 0)
(0.104754 0.000967411 0)
(0.105329 0.00121031 0)
(0.10575 0.00158989 0)
(0.106305 0.00196267 0)
(0.106941 0.00239397 0)
(0.107607 0.0028748 0)
(0.108326 0.0033768 0)
(0.109079 0.00388645 0)
(0.109856 0.00446629 0)
(0.110811 0.00506337 0)
(0.111759 0.00570284 0)
(0.112845 0.00637638 0)
(0.11402 0.00704777 0)
(0.0999884 -0.000114564 0)
(0.100096 -0.000279436 0)
(0.100197 -0.000469921 0)
(0.100456 -0.000527235 0)
(0.10068 -0.000645793 0)
(0.100916 -0.000590249 0)
(0.101238 -0.000688957 0)
(0.101505 -0.000579919 0)
(0.101762 -0.000646559 0)
(0.102045 -0.000500762 0)
(0.10245 -0.000510735 0)
(0.102712 -0.00039029 0)
(0.103034 -0.000338994 0)
(0.103491 -0.000141667 0)
(0.103918 -4.05047e-05 0)
(0.104258 0.000194664 0)
(0.104706 0.000330743 0)
(0.10522 0.00061071 0)
(0.105819 0.000813694 0)
(0.106285 0.00114339 0)
(0.106867 0.0014599 0)
(0.107535 0.00185634 0)
(0.108257 0.00226656 0)
(0.108995 0.00274827 0)
(0.109809 0.00319051 0)
(0.110611 0.0037292 0)
(0.111583 0.00424288 0)
(0.112532 0.00479784 0)
(0.113619 0.00534067 0)
(0.114744 0.00589751 0)
(0.0999925 -0.000204456 0)
(0.100133 -0.000530464 0)
(0.100306 -0.000802425 0)
(0.100611 -0.000912667 0)
(0.100885 -0.0010307 0)
(0.101148 -0.00100435 0)
(0.10149 -0.00109662 0)
(0.101776 -0.00103143 0)
(0.102039 -0.00108928 0)
(0.102349 -0.0009732 0)
(0.102759 -0.000986767 0)
(0.10306 -0.000893922 0)
(0.103415 -0.000846738 0)
(0.103867 -0.000664503 0)
(0.104315 -0.000586555 0)
(0.104664 -0.000393977 0)
(0.105179 -0.00028622 0)
(0.105709 -5.24501e-05 0)
(0.106323 0.000122465 0)
(0.10679 0.000405246 0)
(0.107418 0.000684481 0)
(0.108095 0.00103614 0)
(0.108909 0.00137084 0)
(0.109668 0.00179047 0)
(0.110575 0.00216917 0)
(0.111374 0.00264427 0)
(0.112375 0.00309859 0)
(0.113251 0.00357982 0)
(0.114338 0.00403796 0)
(0.115353 0.0045056 0)
(0.0999918 -0.000229581 0)
(0.100237 -0.000599508 0)
(0.100549 -0.00085152 0)
(0.100962 -0.000962151 0)
(0.101291 -0.0010553 0)
(0.101597 -0.0010683 0)
(0.101924 -0.00115926 0)
(0.102232 -0.00113474 0)
(0.102481 -0.00118829 0)
(0.10281 -0.0011147 0)
(0.103189 -0.00114664 0)
(0.103504 -0.0010864 0)
(0.103857 -0.00103279 0)
(0.104271 -0.000891831 0)
(0.104692 -0.000856949 0)
(0.105012 -0.000723632 0)
(0.105541 -0.00062461 0)
(0.106044 -0.00040854 0)
(0.106658 -0.000251971 0)
(0.107092 -2.36122e-05 0)
(0.107747 0.000198995 0)
(0.108359 0.000478849 0)
(0.10922 0.000754192 0)
(0.109943 0.0011474 0)
(0.110933 0.00152396 0)
(0.111727 0.00200563 0)
(0.112803 0.00244918 0)
(0.113658 0.00288206 0)
(0.114805 0.00325507 0)
(0.115766 0.00360719 0)
(0.0999863 -0.000688387 0)
(0.100346 -0.00136148 0)
(0.100702 -0.00157925 0)
(0.10111 -0.00161677 0)
(0.101317 -0.00166928 0)
(0.101543 -0.00171254 0)
(0.101648 -0.00178494 0)
(0.101836 -0.0017829 0)
(0.101808 -0.00178215 0)
(0.102007 -0.00171902 0)
(0.102067 -0.00173686 0)
(0.102204 -0.00170879 0)
(0.102183 -0.00162202 0)
(0.102379 -0.00149769 0)
(0.102425 -0.00146123 0)
(0.1026 -0.00138033 0)
(0.102751 -0.0013109 0)
(0.103021 -0.00114752 0)
(0.103182 -0.000996249 0)
(0.103458 -0.000786771 0)
(0.103796 -0.000597509 0)
(0.104342 -0.000411133 0)
(0.104912 -0.000252608 0)
(0.105598 3.05671e-06 0)
(0.106306 0.000282433 0)
(0.107149 0.00068355 0)
(0.108069 0.00107506 0)
(0.109165 0.00147712 0)
(0.110344 0.00180882 0)
(0.111723 0.0021255 0)
(0.0990241 -0.000602003 0)
(0.0984608 -0.00114512 0)
(0.0974189 -0.00128303 0)
(0.0960058 -0.00127541 0)
(0.0943849 -0.00129738 0)
(0.0927608 -0.001328 0)
(0.0911441 -0.00133796 0)
(0.0895891 -0.00131638 0)
(0.0879655 -0.00128975 0)
(0.0865216 -0.00126327 0)
(0.0849713 -0.00124373 0)
(0.0834994 -0.00117178 0)
(0.0820201 -0.00107677 0)
(0.0808114 -0.0010484 0)
(0.0794264 -0.00106695 0)
(0.0782304 -0.0010149 0)
(0.076982 -0.000879524 0)
(0.0760729 -0.00074219 0)
(0.0750564 -0.000679622 0)
(0.0743632 -0.000643702 0)
(0.0735768 -0.000628291 0)
(0.0731396 -0.000572281 0)
(0.0725732 -0.000439904 0)
(0.0724676 -0.000214094 0)
(0.0723271 4.79558e-05 0)
(0.0728215 0.00031675 0)
(0.0732791 0.0005196 0)
(0.0744136 0.000674203 0)
(0.0753749 0.000767594 0)
(0.0770049 0.000815932 0)
(0.0139144 0.00332873 0)
(0.0484708 0.0155931 0)
(0.0404526 0.0152465 0)
(0.0657299 0.0257986 8.62338e-22)
(0.0576076 0.0264974 7.17085e-22)
(0.0810843 0.0359723 0)
(0.0661625 0.0324079 2.46663e-22)
(0.0997553 0.0433394 3.97426e-23)
(0.0788185 0.0360987 6.85857e-22)
(0.12783 0.0423114 0)
(0.0710145 0.016089 0)
(0.078127 0.0214752 0)
(0.0818984 0.0263136 0)
(0.0900289 0.0355401 0)
(0.0953173 0.0344393 0)
(0.103348 0.0461478 1.8177e-22)
(0.106738 0.0404963 4.32311e-23)
(0.117721 0.0487429 -7.89654e-23)
(0.11995 0.04475 -5.26323e-22)
(0.14436 0.0605474 -4.73969e-22)
(0.0865944 0.0215127 0)
(0.0914782 0.0261224 0)
(0.0935777 0.0288533 0)
(0.0985014 0.029319 0)
(0.103486 0.0367325 0)
(0.107207 0.0382593 -1.81768e-22)
(0.115023 0.0451843 -4.32303e-23)
(0.123637 0.0432971 7.89641e-23)
(0.124778 0.039574 2.76333e-22)
(0.137525 0.0342404 4.73981e-22)
(0.0928365 0.0193017 -3.96878e-22)
(0.0967479 0.0237281 0)
(0.100736 0.0282304 -3.16364e-22)
(0.102734 0.0312649 -2.61263e-22)
(0.107253 0.0340955 -1.86451e-22)
(0.111118 0.0366661 0)
(0.118572 0.0359724 0)
(0.127073 0.040018 1.31844e-22)
(0.130917 0.0427356 2.77808e-22)
(0.137026 0.0340867 4.37665e-22)
(0.0980853 0.0214165 3.96881e-22)
(0.100334 0.0229967 0)
(0.102995 0.0271258 3.16365e-22)
(0.106705 0.027226 2.61264e-22)
(0.110494 0.0326153 1.86452e-22)
(0.115813 0.0322563 0)
(0.120638 0.0352847 0)
(0.125779 0.0349138 -1.31845e-22)
(0.132172 0.0364713 -2.7781e-22)
(0.140259 0.0257114 -4.3767e-22)
(0.101123 0.0199325 0)
(0.10351 0.0219004 -2.85171e-22)
(0.106593 0.025257 0)
(0.10932 0.026375 -1.88975e-22)
(0.112972 0.0294395 0)
(0.117794 0.0297352 0)
(0.121964 0.0309129 0)
(0.127634 0.0306481 -1.51321e-22)
(0.134707 0.0330152 0)
(0.139535 0.0257686 0)
(0.103841 0.019405 2.81922e-22)
(0.106021 0.0203691 5.3843e-22)
(0.108637 0.0237977 2.10848e-22)
(0.111955 0.0236937 1.88975e-22)
(0.115217 0.026998 0)
(0.119649 0.0264929 -2.89972e-23)
(0.12375 0.028616 0)
(0.128605 0.0273008 1.51321e-22)
(0.133946 0.0279565 0)
(0.13843 0.0220942 0)
(0.106205 0.0180649 -2.81923e-22)
(0.108174 0.0190263 -2.53258e-22)
(0.11091 0.0216006 -2.10849e-22)
(0.113905 0.0219906 0)
(0.116963 0.0243561 0)
(0.121041 0.0239226 2.89973e-23)
(0.124807 0.0249891 0)
(0.129295 0.023999 0)
(0.134201 0.0250078 0)
(0.138192 0.0206769 0)
(0.108165 0.0168139 0)
(0.110141 0.0174533 -2.01226e-22)
(0.112601 0.0198342 0)
(0.115548 0.019749 -1.16701e-22)
(0.118456 0.021744 0)
(0.122183 0.0213121 0)
(0.125776 0.0226067 7.04651e-23)
(0.129638 0.0212235 1.52373e-22)
(0.133777 0.0210842 0)
(0.137544 0.0179123 3.24894e-22)
(0.109892 0.0153293 0)
(0.111726 0.0159381 2.01227e-22)
(0.114132 0.0177265 0)
(0.116909 0.0178976 1.16701e-22)
(0.119659 0.0193934 0)
(0.122963 0.0189143 0)
(0.126356 0.0195695 -7.04652e-23)
(0.130042 0.0185863 -1.52374e-22)
(0.133621 0.0186755 0)
(0.136724 0.0159321 -3.24894e-22)
(0.111335 0.0138371 9.40427e-23)
(0.113134 0.0143303 0)
(0.115378 0.0158717 0)
(0.117979 0.015854 4.345e-23)
(0.12062 0.0170133 0)
(0.123689 0.0166969 0)
(0.126807 0.017292 0)
(0.12998 0.0161111 -7.24124e-23)
(0.133222 0.0158128 0)
(0.136262 0.0136918 0)
(0.112576 0.0123108 -7.85769e-24)
(0.114288 0.012763 0)
(0.116441 0.0139402 5.7704e-23)
(0.118883 0.0140382 -5.44434e-24)
(0.121367 0.0148897 0)
(0.124135 0.0145301 0)
(0.127083 0.0148432 -3.85196e-23)
(0.130062 0.0139233 7.24126e-23)
(0.132894 0.013644 -1.02429e-22)
(0.135529 0.0117479 -1.36114e-22)
(0.113636 0.0107598 -6.61841e-24)
(0.115291 0.011152 0)
(0.117306 0.0121238 -5.42116e-24)
(0.119582 0.0121565 -4.33704e-24)
(0.121962 0.0128004 1.26783e-23)
(0.124542 0.0125185 1.12947e-23)
(0.127216 0.0127416 3.3884e-25)
(0.129887 0.0118126 -6.72481e-23)
(0.132523 0.0114412 4.99881e-24)
(0.134996 0.00988313 7.35423e-24)
(0.114544 0.0092945 -7.95669e-23)
(0.116123 0.00963806 0)
(0.118041 0.0103913 -5.22829e-23)
(0.120172 0.0104468 -3.36687e-23)
(0.122404 0.0109084 -1.26783e-23)
(0.124788 0.0106208 -2.36169e-23)
(0.127291 0.0107068 3.81808e-23)
(0.12977 0.00992293 6.72482e-23)
(0.132152 0.00954582 9.74307e-23)
(0.134404 0.00818764 1.2876e-22)
(0.115325 0.00775347 0)
(0.116835 0.00805502 0)
(0.118634 0.00866419 0)
(0.120618 0.00870211 0)
(0.122734 0.00904278 0)
(0.124962 0.00878757 1.23223e-23)
(0.12727 0.00880821 0)
(0.129551 0.00810345 0)
(0.131784 0.00771913 0)
(0.133889 0.00658382 0)
(0.116038 0.00643905 0)
(0.117453 0.00668256 0)
(0.119163 0.00713816 0)
(0.121001 0.00715723 0)
(0.123001 0.00737623 0)
(0.125064 0.00712296 6.39147e-24)
(0.127239 0.00706051 0)
(0.129358 0.00645312 0)
(0.131447 0.00607753 0)
(0.1334 0.00511574 0)
(0.116656 0.00493648 0)
(0.117922 0.005152 0)
(0.119566 0.00550449 1.96914e-23)
(0.121204 0.00552143 0)
(0.12314 0.00566211 3.48577e-24)
(0.125006 0.00544356 -6.39148e-24)
(0.127099 0.00534208 0)
(0.129022 0.00483225 -2.84438e-23)
(0.131043 0.00448013 0)
(0.132818 0.0037017 0)
(0.117089 0.00388084 0)
(0.118066 0.00400453 0)
(0.119717 0.00419201 -1.96915e-23)
(0.12102 0.00415172 0)
(0.122964 0.00416791 -3.48578e-24)
(0.124462 0.00394386 0)
(0.126559 0.00377237 0)
(0.128089 0.00333381 2.84439e-23)
(0.130102 0.00298807 0)
(0.131442 0.00236049 0)
(0.113169 0.00231863 -7.48976e-24)
(0.113836 0.00242139 -6.19552e-24)
(0.115594 0.00251478 -4.6791e-24)
(0.116448 0.00248593 0)
(0.118453 0.00244361 -9.00216e-25)
(0.119353 0.00228193 0)
(0.12145 0.0021034 3.87153e-24)
(0.122193 0.00179406 0)
(0.124143 0.00150253 9.50003e-24)
(0.124469 0.00108211 1.25507e-23)
(0.0782975 0.00079554 7.48891e-24)
(0.0791364 0.000739726 6.19475e-24)
(0.0806649 0.000672241 4.6785e-24)
(0.0815339 0.000594645 0)
(0.0831351 0.000501735 9.00088e-25)
(0.083826 0.000393248 0)
(0.0853094 0.000257845 -3.87091e-24)
(0.0855535 0.00010755 0)
(0.0866739 -6.55718e-05 -9.49832e-24)
(0.0861523 -0.000240689 -1.25484e-23)
(0.00714708 0.00153498 0)
(0.00982152 0.00512828 0)
(0.00307999 0.00529807 0)
(-0.00780168 0.00790904 0)
(-0.0503866 0.0176067 0)
(-0.0886748 0.0140932 0)
(-0.122587 0.0112255 0)
(-0.133722 0.0045889 0)
(-0.138381 0.00141644 0)
(-0.13036 -0.00208621 0)
(-0.121123 -0.0037332 0)
(-0.10278 -0.00556748 0)
(-0.0841943 -0.00666516 0)
(-0.0609076 -0.00770755 0)
(-0.0366992 -0.00753207 0)
(-0.0140126 -0.00645576 0)
(0.00650932 -0.00549706 0)
(0.0232981 -0.00418751 0)
(0.0370206 -0.00297157 0)
(0.0475097 -0.00186056 0)
(0.0551623 -0.000884539 0)
(0.0603191 -3.57099e-05 0)
(0.0632398 0.000659293 0)
(0.0642497 0.00116577 0)
(0.0638261 0.00147326 0)
(0.0624776 0.00156762 0)
(0.0605933 0.00150374 0)
(0.0585252 0.00134263 0)
(0.0564694 0.00113249 0)
(0.0546088 0.00090791 0)
(0.0529603 0.00069683 0)
(0.051601 0.000513731 0)
(0.0504536 0.000368102 0)
(0.0495579 0.000256343 0)
(0.0488153 0.000178697 0)
(0.0482449 0.000121327 0)
(0.0477911 8.74069e-05 0)
(0.0474076 5.89164e-05 0)
(0.047176 4.73031e-05 0)
(0.0468477 3.34812e-05 0)
(0.00599222 -0.014684 0)
(0.011306 -0.00188652 0)
(-0.000353783 0.00757674 0)
(-0.0424765 0.0312903 0)
(-0.0782207 0.0373953 0)
(-0.105085 0.0342004 0)
(-0.127701 0.0217934 0)
(-0.130859 0.00793567 0)
(-0.132642 -0.00310077 0)
(-0.120478 -0.011237 0)
(-0.110276 -0.0163916 0)
(-0.0911472 -0.0214331 0)
(-0.0725573 -0.0240818 0)
(-0.0484911 -0.0267205 0)
(-0.0248769 -0.0269595 0)
(-0.00168094 -0.0241788 0)
(0.0189423 -0.0211821 0)
(0.0362309 -0.0175224 0)
(0.0507479 -0.0140508 0)
(0.0625227 -0.010838 0)
(0.0719136 -0.00797924 0)
(0.0793392 -0.00546476 0)
(0.0848547 -0.00330407 0)
(0.0886312 -0.00154061 0)
(0.0909126 -0.000195161 0)
(0.0922404 0.000727617 0)
(0.0929256 0.00128592 0)
(0.0933477 0.00155446 0)
(0.0935212 0.0016225 0)
(0.0936483 0.00154881 0)
(0.0936167 0.00141449 0)
(0.0935827 0.00123509 0)
(0.093419 0.00106699 0)
(0.0932644 0.000884932 0)
(0.0930307 0.000747275 0)
(0.0928036 0.000595317 0)
(0.092581 0.000504364 0)
(0.0923221 0.000382099 0)
(0.0921838 0.000337512 0)
(0.0919003 0.000239321 0)
(0.000626214 -0.00998853 0)
(-0.0170985 0.011172 0)
(-0.0366644 0.0424475 0)
(-0.0562798 0.0581975 0)
(-0.0723857 0.0598238 0)
(-0.0856548 0.0485123 0)
(-0.0982661 0.0315624 0)
(-0.0990973 0.0103445 0)
(-0.0975226 -0.00599622 0)
(-0.0874274 -0.0187469 0)
(-0.0771543 -0.0256252 0)
(-0.0618565 -0.0326331 0)
(-0.046156 -0.038098 0)
(-0.0250929 -0.0427904 0)
(-0.00434084 -0.042381 0)
(0.0163379 -0.0387263 0)
(0.0336961 -0.0333644 0)
(0.0477622 -0.0276035 0)
(0.0596381 -0.0222068 0)
(0.0693069 -0.017349 0)
(0.0768948 -0.0131482 0)
(0.0832753 -0.00942871 0)
(0.0887747 -0.00608753 0)
(0.0932453 -0.00325019 0)
(0.0962772 -0.0011662 0)
(0.0981471 0.000109833 0)
(0.0991627 0.000749101 0)
(0.0999157 0.000981894 0)
(0.100502 0.00101161 0)
(0.10119 0.000929181 0)
(0.101792 0.000835036 0)
(0.102444 0.000724646 0)
(0.102919 0.000658599 0)
(0.103374 0.000575685 0)
(0.103634 0.000541811 0)
(0.103861 0.000465248 0)
(0.103947 0.000441584 0)
(0.10401 0.000357006 0)
(0.104015 0.000339884 0)
(0.103991 0.000253597 0)
(0.00293671 -0.003601 0)
(-0.0141562 0.027164 0)
(-0.0151918 0.0401988 0)
(-0.0358305 0.0598213 0)
(-0.0437706 0.0586816 0)
(-0.0528943 0.0507749 0)
(-0.0592762 0.0332799 0)
(-0.059627 0.00929309 0)
(-0.0578027 -0.0113615 0)
(-0.0499348 -0.0263268 0)
(-0.0411736 -0.0350596 0)
(-0.0298467 -0.0431751 0)
(-0.0161848 -0.0505899 0)
(0.000165166 -0.0566034 0)
(0.0183615 -0.0572686 0)
(0.03607 -0.0518414 0)
(0.0509203 -0.0437324 0)
(0.06113 -0.0361076 0)
(0.0694165 -0.0293196 0)
(0.0769941 -0.0229394 0)
(0.0825534 -0.0177055 0)
(0.0862509 -0.0137363 0)
(0.0895462 -0.0102869 0)
(0.0933783 -0.00683736 0)
(0.0971403 -0.00367344 0)
(0.100174 -0.00132228 0)
(0.102 2.65349e-05 0)
(0.102986 0.000559826 0)
(0.103369 0.000645321 0)
(0.103689 0.000545208 0)
(0.103935 0.00044354 0)
(0.104349 0.000353182 0)
(0.10469 0.000337744 0)
(0.105119 0.000316753 0)
(0.105389 0.000354506 0)
(0.105691 0.000336284 0)
(0.105825 0.000370803 0)
(0.105993 0.000320474 0)
(0.106029 0.000336886 0)
(0.10612 0.000259147 0)
(0.00486411 -0.0029305 0)
(-0.0179161 0.021973 0)
(-0.0211252 0.0503896 0)
(-0.0179539 0.0727199 0)
(-0.0120814 0.0720348 0)
(-0.0122381 0.0627844 0)
(-0.0135243 0.0406249 0)
(-0.0121392 0.01259 0)
(-0.0101411 -0.0122532 0)
(-0.00462296 -0.0311516 0)
(0.00209579 -0.0414168 0)
(0.0105008 -0.0506273 0)
(0.0188901 -0.060168 0)
(0.0315043 -0.0679768 0)
(0.0436488 -0.0688026 0)
(0.0548694 -0.0624005 0)
(0.066394 -0.0510238 0)
(0.0738665 -0.040665 0)
(0.0772168 -0.0336344 0)
(0.0814145 -0.0268448 0)
(0.0865671 -0.0196886 0)
(0.0896254 -0.0142835 0)
(0.0903167 -0.0111148 0)
(0.0910268 -0.00872017 0)
(0.0930413 -0.00610959 0)
(0.0962239 -0.00344283 0)
(0.0994165 -0.00130292 0)
(0.102006 -1.26931e-05 0)
(0.103587 0.000516036 0)
(0.104518 0.000546402 0)
(0.104907 0.000397193 0)
(0.10522 0.000216459 0)
(0.105384 0.000137646 0)
(0.105656 9.9654e-05 0)
(0.105808 0.000152842 0)
(0.10604 0.000166087 0)
(0.106126 0.000228733 0)
(0.106272 0.00020805 0)
(0.106293 0.000235047 0)
(0.106377 0.00017724 0)
(0.00730852 0.00577539 0)
(-0.00521797 0.0521719 0)
(0.0136998 0.0435521 0)
(0.0137385 0.0601132 0)
(0.0213521 0.0560927 0)
(0.0248963 0.0484231 0)
(0.0323125 0.0306097 0)
(0.0368178 0.00632474 0)
(0.041119 -0.0173587 0)
(0.0465205 -0.0357167 0)
(0.0521144 -0.0459744 0)
(0.0569686 -0.0539362 0)
(0.0636724 -0.0645188 0)
(0.0689235 -0.0740229 0)
(0.0747669 -0.0750329 0)
(0.0774674 -0.068661 0)
(0.0802613 -0.0569251 0)
(0.0854 -0.0429881 0)
(0.0865102 -0.0340835 0)
(0.0851072 -0.0293714 0)
(0.0867949 -0.0234563 0)
(0.0905934 -0.0162577 0)
(0.0923855 -0.0110309 0)
(0.0917664 -0.00852436 0)
(0.0909037 -0.00719807 0)
(0.0916665 -0.00575104 0)
(0.0940098 -0.00401939 0)
(0.0972373 -0.00236791 0)
(0.10026 -0.00111859 0)
(0.102702 -0.000394473 0)
(0.104243 -6.82674e-05 0)
(0.10522 -2.65595e-06 0)
(0.10566 1.33472e-05 0)
(0.105969 -1.32357e-06 0)
(0.106058 6.661e-05 0)
(0.106203 9.86773e-05 0)
(0.10622 0.000205614 0)
(0.10632 0.000204367 0)
(0.106313 0.000268291 0)
(0.106388 0.000202528 0)
(-0.0555141 -0.00506453 0)
(0.00158814 0.0129341 0)
(0.00455077 0.0302939 0)
(0.0428335 0.0623692 0)
(0.0617715 0.064395 0)
(0.073888 0.0572822 0)
(0.083148 0.0367696 0)
(0.0882703 0.00958746 0)
(0.0908727 -0.0161726 0)
(0.0929217 -0.0365969 0)
(0.0922778 -0.0480793 0)
(0.0935704 -0.0557715 0)
(0.0976776 -0.0652506 0)
(0.09888 -0.074752 0)
(0.0974323 -0.0757295 0)
(0.0962944 -0.0673542 0)
(0.0915304 -0.0575691 0)
(0.0904628 -0.0454628 0)
(0.0930102 -0.0332022 0)
(0.0919061 -0.0265675 0)
(0.0891337 -0.0231635 0)
(0.0894942 -0.0180805 0)
(0.0919247 -0.0119521 0)
(0.0933355 -0.00768638 0)
(0.0928871 -0.00605814 0)
(0.0921022 -0.0057317 0)
(0.0922548 -0.00537323 0)
(0.093858 -0.0045303 0)
(0.0963387 -0.00338509 0)
(0.0991931 -0.0022776 0)
(0.101681 -0.00138106 0)
(0.103676 -0.000781585 0)
(0.104928 -0.000384049 0)
(0.105741 -0.000178838 0)
(0.106084 -1.06848e-05 0)
(0.106311 5.05776e-05 0)
(0.106329 0.000139419 0)
(0.106379 0.000128413 0)
(0.106342 0.000169161 0)
(0.106352 0.000107026 0)
(0.106045 0.0411293 0)
(0.0791659 0.0188674 0)
(0.0518977 0.0146329 0)
(0.0592558 0.0245001 0)
(0.0768909 0.032281 0)
(0.0932823 0.0324341 0)
(0.108349 0.0206395 0)
(0.117753 0.00244966 0)
(0.121932 -0.0194195 0)
(0.12133 -0.0381694 0)
(0.119606 -0.0493307 0)
(0.11946 -0.057788 0)
(0.122329 -0.0672936 0)
(0.121791 -0.0740695 0)
(0.11226 -0.0741141 0)
(0.104173 -0.0639003 0)
(0.098069 -0.0517917 0)
(0.0916645 -0.0437564 0)
(0.0908838 -0.0354417 0)
(0.0932207 -0.0270731 0)
(0.093325 -0.0217282 0)
(0.0921427 -0.017975 0)
(0.0925296 -0.013581 0)
(0.0945308 -0.00911534 0)
(0.0964515 -0.00619894 0)
(0.0974218 -0.00515114 0)
(0.0974701 -0.00517554 0)
(0.0974051 -0.00530282 0)
(0.0977039 -0.00502859 0)
(0.0987509 -0.00432384 0)
(0.100257 -0.00335984 0)
(0.102043 -0.00239225 0)
(0.103588 -0.00151448 0)
(0.104852 -0.000866112 0)
(0.1056 -0.000355935 0)
(0.106074 -8.19806e-05 0)
(0.106229 0.000164087 0)
(0.106334 0.000205692 0)
(0.10632 0.000301553 0)
(0.106339 0.000203312 0)
(0.138306 0.0470718 0)
(0.138021 0.04009 0)
(0.12917 0.0397517 0)
(0.120402 0.0397976 0)
(0.120698 0.0368994 0)
(0.125579 0.0299011 0)
(0.134738 0.0161443 0)
(0.141704 0.000229106 0)
(0.144878 -0.0187449 0)
(0.145761 -0.0366619 0)
(0.145032 -0.0488256 0)
(0.144936 -0.058127 0)
(0.144942 -0.066008 0)
(0.140885 -0.0674523 0)
(0.128607 -0.0637142 0)
(0.113141 -0.056717 0)
(0.104136 -0.046785 0)
(0.0989707 -0.0384204 0)
(0.0950631 -0.0329537 0)
(0.0939044 -0.0277295 0)
(0.094722 -0.0223398 0)
(0.0956522 -0.0176089 0)
(0.096277 -0.0137493 0)
(0.0972626 -0.0106036 0)
(0.0989241 -0.00824846 0)
(0.101171 -0.00656712 0)
(0.103301 -0.00537655 0)
(0.104673 -0.004587 0)