/*--------------------------------*- C++ -*----------------------------------*\
| =========                 |                                                 |
| \\      /  F ield         | OpenFOAM: The Open Source CFD Toolbox           |
|  \\    /   O peration     | Version:  2112                                  |
|   \\  /    A nd           | Website:  www.openfoam.com                      |
|    \\/     M anipulation  |                                                 |
\*---------------------------------------------------------------------------*/
FoamFile
{
    version     2.0;
    format      ascii;
    arch        "LSB;label=32;scalar=64";
    class       volScalarField;
    location    "0.29";
    object      nut;
}
// * * * * * * * * * * * * * * * * * * * * * * * * * * * * * * * * * * * * * //

dimensions      [0 2 -1 0 0 0 0];

internalField   nonuniform List<scalar> 
1880
(
3.47835e-11
3.95216e-12
5.49105e-13
8.51516e-14
1.27858e-14
1.94091e-13
1.77052e-14
7.9028e-14
4.44918e-14
4.33616e-14
7.06439e-15
4.39362e-14
1.13754e-13
1.43711e-13
7.16781e-14
2.15908e-13
4.11571e-13
1.70312e-13
1.56745e-12
9.1542e-14
3.76468e-13
8.5425e-14
2.9529e-15
4.05125e-12
2.71104e-13
4.66542e-11
3.20882e-11
2.23576e-11
1.97434e-09
4.10191e-10
4.62788e-09
5.46539e-09
2.33831e-09
8.13209e-11
2.21285e-10
3.20035e-11
4.71652e-11
1.76844e-11
2.63971e-11
2.45559e-12
8.65377e-13
1.4957e-12
1.71403e-13
2.72035e-11
1.87017e-12
9.33136e-12
3.14549e-12
4.50043e-12
1.92495e-11
2.78745e-11
9.65819e-11
1.23615e-10
5.54301e-10
3.97091e-10
1.20682e-09
6.68877e-10
3.79549e-10
7.50662e-09
3.91171e-09
8.99877e-09
1.62045e-09
2.68081e-09
1.63213e-09
9.65102e-11
1.79571e-09
3.41193e-10
1.73877e-09
3.70388e-09
1.39767e-09
2.6644e-09
1.885e-09
1.15757e-09
1.36753e-10
2.73119e-09
1.9646e-10
1.9047e-09
1.99337e-10
9.27857e-11
5.01598e-09
1.01668e-11
2.33256e-09
2.62521e-09
2.38688e-11
1.02181e-08
2.64181e-09
5.17959e-09
2.68837e-08
1.26962e-08
1.78043e-08
6.11345e-08
2.67164e-11
6.54466e-10
1.00993e-09
6.13832e-09
1.61073e-09
5.14811e-09
4.67729e-10
9.9568e-09
1.62367e-11
1.94612e-09
1.51549e-08
4.20091e-09
1.59339e-08
4.52705e-09
1.93081e-08
2.22934e-09
2.08767e-08
4.63187e-09
5.031e-09
7.58839e-09
1.21887e-08
8.74652e-09
1.1509e-08
1.21132e-08
1.11186e-08
1.63194e-08
1.84464e-08
2.58767e-08
2.71399e-08
3.33068e-08
2.18501e-11
7.95028e-10
5.69862e-10
1.46614e-10
1.01318e-09
2.08665e-10
2.03242e-09
9.72257e-10
3.54602e-09
3.13791e-09
8.40508e-09
8.67664e-09
4.32229e-09
6.13335e-09
6.11711e-09
8.32826e-10
2.16839e-08
2.5842e-09
4.10667e-09
5.34519e-09
3.4591e-09
7.14891e-09
5.45974e-09
1.1044e-08
6.59023e-09
1.27032e-08
1.45822e-08
2.08195e-08
2.023e-08
3.26439e-08
7.74879e-12
5.56745e-11
4.2408e-10
2.83179e-11
4.85408e-10
1.66151e-09
7.08483e-10
1.74039e-09
9.30638e-10
4.99151e-09
4.61993e-09
3.18519e-09
1.27225e-10
2.66832e-09
1.79319e-09
3.10212e-11
1.73108e-09
1.62173e-09
4.91107e-10
3.52241e-09
2.28984e-09
5.9551e-09
5.67253e-09
8.09943e-09
9.63291e-09
1.30188e-08
1.60142e-08
1.81053e-08
2.19548e-08
2.2682e-08
6.56122e-12
1.43835e-10
4.17153e-10
2.98687e-11
1.40757e-09
1.17802e-09
2.61833e-09
4.36231e-10
3.59086e-09
4.94864e-09
7.87788e-09
2.00421e-09
2.36836e-09
1.77386e-09
3.30866e-09
1.54323e-09
1.8342e-09
2.26787e-09
2.66248e-09
3.07375e-09
4.14942e-09
5.32365e-09
6.05522e-09
8.05374e-09
9.78356e-09
1.06569e-08
1.45746e-08
1.59292e-08
1.86316e-08
2.19218e-08
1.17372e-11
1.03008e-10
5.19482e-10
7.02284e-11
1.05685e-09
1.91515e-09
1.63617e-09
8.5027e-10
1.93914e-09
5.05882e-09
4.97764e-09
1.79834e-09
1.78736e-09
1.89861e-09
2.83792e-09
1.5423e-09
2.93795e-09
3.46353e-09
4.55305e-09
4.70883e-09
5.76286e-09
6.65593e-09
7.51286e-09
8.38101e-09
1.05931e-08
1.16501e-08
1.49427e-08
1.53984e-08
1.92588e-08
1.87166e-08
2.33198e-11
1.16447e-10
6.57016e-10
2.49982e-10
1.37643e-09
2.09158e-09
2.03275e-09
1.075e-09
2.25356e-09
4.27893e-09
4.66676e-09
1.78518e-09
2.07191e-09
2.33458e-09
2.16578e-09
2.75542e-09
3.65292e-09
3.1847e-09
5.09044e-09
4.63704e-09
6.05854e-09
7.13752e-09
7.36301e-09
8.18496e-09
1.01445e-08
1.05213e-08
1.35633e-08
1.44805e-08
1.71705e-08
1.79546e-08
4.76561e-11
2.02669e-10
8.2979e-10
5.87255e-10
1.39771e-09
2.18764e-09
1.87012e-09
1.40837e-09
2.02826e-09
3.74132e-09
3.78986e-09
2.06854e-09
2.71184e-09
2.63329e-09
3.01863e-09
2.89444e-09
3.80404e-09
4.46336e-09
5.93702e-09
5.15289e-09
6.28787e-09
6.77395e-09
7.50756e-09
8.32612e-09
1.01045e-08
1.08211e-08
1.33239e-08
1.37278e-08
1.65742e-08
1.66028e-08
1.14897e-10
4.0787e-10
1.00555e-09
8.84671e-10
1.42964e-09
2.34554e-09
1.81627e-09
1.66804e-09
2.02961e-09
3.46456e-09
2.86664e-09
2.52694e-09
3.43741e-09
3.02315e-09
2.93206e-09
3.26104e-09
4.24477e-09
4.75384e-09
5.79118e-09
5.41493e-09
5.99205e-09
6.82146e-09
7.26951e-09
8.13227e-09
9.76461e-09
1.05113e-08
1.2467e-08
1.32191e-08
1.52478e-08
1.6024e-08
1.89314e-10
7.36005e-10
1.08943e-09
1.18173e-09
1.54199e-09
2.25463e-09
1.98767e-09
2.00778e-09
2.26899e-09
3.09877e-09
3.15802e-09
2.93764e-09
3.55854e-09
3.2828e-09
3.57988e-09
3.58372e-09
4.46123e-09
4.98593e-09
5.9416e-09
5.37682e-09
6.19753e-09
6.776e-09
7.4346e-09
8.21658e-09
9.71023e-09
1.03547e-08
1.20968e-08
1.26853e-08
1.45106e-08
1.52286e-08
4.12874e-11
6.65953e-10
1.09644e-09
1.20676e-09
1.42739e-09
2.40541e-09
1.93425e-09
2.06937e-09
2.41595e-09
3.12977e-09
2.63076e-09
3.05844e-09
4.18799e-09
3.46681e-09
3.50391e-09
3.72664e-09
4.7137e-09
5.35153e-09
5.54058e-09
5.68076e-09
6.26357e-09
6.92128e-09
7.47894e-09
8.14168e-09
9.39916e-09
1.02489e-08
1.13993e-08
1.22648e-08
1.35986e-08
1.45887e-08
2.05039e-12
6.79326e-10
9.1993e-10
1.44534e-09
1.58012e-09
2.2133e-09
2.09574e-09
2.41103e-09
2.53806e-09
2.96354e-09
2.97458e-09
3.41912e-09
4.1059e-09
3.66708e-09
4.00859e-09
4.05844e-09
4.86777e-09
5.33948e-09
5.8246e-09
5.9386e-09
6.53678e-09
7.09418e-09
7.64182e-09
8.23836e-09
9.41789e-09
1.00403e-08
1.11297e-08
1.18925e-08
1.30552e-08
1.3958e-08
7.70936e-13
2.0683e-10
7.75739e-10
9.24967e-10
1.19913e-09
2.42976e-09
1.90349e-09
1.95642e-09
2.60753e-09
2.85541e-09
2.46365e-09
3.13455e-09
4.42581e-09
3.64559e-09
3.74185e-09
3.99389e-09
5.01765e-09
5.51464e-09
5.53086e-09
6.05788e-09
6.73775e-09
7.16543e-09
7.59354e-09
8.05536e-09
8.95291e-09
9.77391e-09
1.04491e-08
1.13063e-08
1.22722e-08
1.31558e-08
4.37096e-11
1.00529e-09
9.96231e-10
1.49918e-09
1.46065e-09
1.97519e-09
1.94657e-09
2.53298e-09
2.38493e-09
2.68058e-09
2.90467e-09
3.37099e-09
4.06923e-09
3.67437e-09
4.05984e-09
4.23465e-09
5.01554e-09
5.39967e-09
5.72335e-09
6.32299e-09
6.87206e-09
7.42822e-09
7.8625e-09
8.28265e-09
9.01446e-09
9.52711e-09
1.013e-08
1.08523e-08
1.16982e-08
1.25287e-08
1.45288e-12
1.81177e-12
3.78303e-10
5.21295e-10
9.58855e-10
1.67778e-09
1.17837e-09
1.12997e-09
1.9823e-09
2.07767e-09
1.85594e-09
2.70441e-09
4.19577e-09
3.42727e-09
3.54335e-09
4.17785e-09
5.07705e-09
5.24835e-09
5.43519e-09
6.19966e-09
7.05609e-09
7.51399e-09
7.76931e-09
7.98137e-09
8.32769e-09
8.74668e-09
9.06565e-09
9.65336e-09
1.05123e-08
1.13918e-08
1.9466e-09
2.76069e-09
1.57889e-09
1.50262e-09
1.74368e-09
2.33735e-09
3.05238e-09
4.22748e-09
3.01937e-09
3.13977e-09
1.7013e-09
9.15344e-10
5.14521e-10
5.78927e-10
3.16124e-10
6.98477e-11
3.90097e-12
5.12747e-13
1.42684e-11
2.1788e-12
7.76083e-14
3.4023e-13
2.42973e-11
5.15225e-11
1.04166e-10
1.38689e-11
5.00348e-12
1.16079e-10
6.29683e-10
2.07211e-09
4.95374e-09
5.4998e-09
1.03704e-09
1.41354e-10
3.10702e-11
5.91079e-12
4.16801e-13
4.35945e-14
1.45211e-12
2.33659e-13
8.31015e-13
3.95736e-12
2.28901e-12
2.15927e-14
3.64273e-13
4.53353e-12
1.09441e-11
7.04679e-12
4.26886e-12
3.82678e-12
4.34577e-12
9.39825e-12
2.42069e-11
4.41715e-11
5.91558e-11
4.78338e-11
2.65755e-11
1.26302e-11
3.52161e-12
3.11625e-13
3.47996e-11
4.61376e-12
2.62335e-13
1.78301e-14
7.33809e-14
1.74884e-14
3.44961e-15
2.27531e-15
2.4058e-16
1.34118e-15
5.28211e-15
1.31934e-15
2.3443e-16
2.15661e-15
2.36871e-14
7.85677e-14
1.66308e-14
1.07414e-15
8.76002e-17
4.93428e-15
7.56901e-14
3.70648e-13
7.32391e-13
7.62654e-13
4.60676e-13
1.66281e-13
3.97274e-14
8.15373e-15
1.08677e-16
6.38332e-16
1.62123e-09
7.41066e-10
1.62618e-09
2.9737e-10
5.36227e-11
1.69405e-12
1.56503e-10
7.3201e-11
7.06605e-11
1.41019e-09
1.07791e-08
3.69277e-08
1.63105e-08
5.39116e-09
5.10871e-09
1.89551e-09
1.70262e-08
6.51343e-08
2.93486e-08
6.27573e-07
3.36934e-08
1.43257e-09
5.88816e-08
5.51471e-08
3.01355e-08
3.95319e-08
8.91679e-08
8.92656e-08
8.60436e-08
1.09578e-07
6.12465e-08
3.67449e-08
2.77632e-08
4.28203e-08
4.60692e-08
4.80933e-08
3.93582e-08
8.61272e-09
6.34125e-08
2.12791e-08
3.98196e-08
3.18682e-08
3.63036e-08
3.93773e-08
3.52815e-08
3.65718e-08
4.35392e-08
3.5562e-08
3.94594e-08
2.15253e-08
4.34375e-08
2.94011e-08
2.90405e-08
3.35581e-08
3.37911e-08
3.49608e-08
4.11924e-08
3.49304e-08
2.86779e-08
4.11435e-08
3.2063e-08
2.58356e-08
2.81113e-08
3.04907e-08
3.01884e-08
2.98256e-08
3.40795e-08
3.41355e-08
3.17662e-08
3.69799e-08
3.16635e-08
2.45104e-08
2.54873e-08
2.70949e-08
2.84537e-08
2.93247e-08
3.19216e-08
3.21949e-08
2.69187e-08
3.04812e-08
2.55924e-08
2.19657e-08
2.40093e-08
2.55316e-08
2.58613e-08
2.62605e-08
2.85853e-08
2.9569e-08
2.55225e-08
2.66989e-08
2.35374e-08
2.06048e-08
2.22863e-08
2.32084e-08
2.43706e-08
2.5757e-08
2.55961e-08
2.59517e-08
2.44934e-08
2.42896e-08
2.02918e-08
1.9015e-08
2.09296e-08
2.19134e-08
2.21963e-08
2.33569e-08
2.40468e-08
2.39226e-08
2.15842e-08
2.11962e-08
1.87212e-08
1.78465e-08
1.94198e-08
2.03874e-08
2.10374e-08
2.19537e-08
2.1499e-08
2.14352e-08
2.0666e-08
1.94375e-08
1.6766e-08
1.67029e-08
1.82651e-08
1.91676e-08
1.94273e-08
2.02208e-08
2.01973e-08
1.96669e-08
1.8538e-08
1.75724e-08
1.58115e-08
1.57608e-08
1.7044e-08
1.79098e-08
1.83752e-08
1.88105e-08
1.84644e-08
1.80539e-08
1.74079e-08
1.6156e-08
1.44446e-08
1.48193e-08
1.60175e-08
1.68482e-08
1.72202e-08
1.75575e-08
1.73026e-08
1.67587e-08
1.60158e-08
1.48905e-08
1.37626e-08
1.39982e-08
1.506e-08
1.574e-08
1.62361e-08
1.64656e-08
1.61903e-08
1.56928e-08
1.50645e-08
1.39281e-08
1.24601e-08
1.29792e-08
1.41175e-08
1.4715e-08
1.53086e-08
1.5432e-08
1.53403e-08
1.46541e-08
1.41556e-08
1.27195e-08
3.68513e-09
3.59645e-09
5.50883e-09
5.13686e-09
6.54853e-09
5.62402e-09
6.16946e-09
4.59766e-09
4.48287e-09
2.83661e-09
4.83445e-14
2.86388e-13
6.36491e-13
3.13596e-12
6.39059e-12
1.30813e-11
1.70568e-11
2.22815e-11
2.29478e-11
2.04635e-11
1.14464e-14
8.24316e-15
1.05847e-14
1.2885e-14
1.77333e-14
3.37953e-14
3.82587e-14
6.39874e-14
5.46399e-14
3.93251e-14
5.09933e-08
6.64781e-09
6.53957e-08
3.31552e-08
1.39483e-08
8.07595e-09
1.97659e-09
9.93237e-10
3.70554e-10
3.51763e-10
4.38599e-10
1.36763e-09
4.49463e-09
1.77014e-08
7.81413e-08
1.31348e-07
3.34588e-08
4.2265e-09
6.32708e-10
1.26229e-10
3.18618e-11
8.20471e-12
1.67012e-12
1.91821e-13
1.70623e-15
7.33418e-15
5.38164e-14
1.05974e-13
1.22749e-13
1.02078e-13
6.41092e-14
3.35026e-14
1.442e-14
5.70754e-15
2.02744e-15
7.15605e-16
2.71305e-16
8.88381e-17
5.46389e-17
1.55378e-16
5.79489e-08
7.74421e-07
1.66749e-08
9.55722e-08
1.79066e-07
1.41008e-07
1.18442e-10
1.16291e-06
5.1169e-07
5.28361e-10
5.94235e-09
3.19074e-08
7.63298e-08
9.83002e-08
1.12251e-07
1.11779e-07
9.92458e-08
8.21861e-08
6.28528e-08
4.28819e-08
2.37309e-08
9.7854e-09
3.19174e-09
9.02552e-10
2.13233e-10
3.71236e-11
3.90819e-12
1.23764e-13
7.5014e-14
3.3819e-13
6.24224e-13
6.44403e-13
5.7269e-13
3.83472e-13
2.65371e-13
1.47977e-13
9.61234e-14
4.57064e-14
2.92971e-14
1.02969e-14
5.02158e-08
2.95495e-09
3.02378e-08
1.30234e-07
3.46134e-10
6.70531e-08
1.11042e-06
1.72595e-06
7.09138e-07
7.53688e-08
9.24467e-10
4.64172e-10
1.13011e-08
4.24511e-08
6.75435e-08
8.15689e-08
8.70776e-08
8.16162e-08
7.08935e-08
6.19769e-08
5.22503e-08
4.11278e-08
2.80073e-08
1.25032e-08
3.54664e-09
8.77403e-10
2.55758e-10
9.25188e-11
3.24059e-11
9.29787e-12
1.67192e-12
3.39272e-13
1.31271e-13
2.16263e-13
4.04027e-13
4.22234e-13
5.43377e-13
3.91476e-13
3.71681e-13
1.70932e-13
7.66058e-09
3.07129e-08
1.44165e-07
6.12754e-08
1.41378e-08
1.63914e-07
1.51494e-06
2.10295e-06
1.1688e-06
2.35454e-07
2.81967e-08
1.35764e-10
3.62734e-09
2.68659e-08
5.587e-08
6.52474e-08
7.3775e-08
7.77345e-08
6.38481e-08
4.9056e-08
3.97471e-08
1.97207e-08
8.31959e-09
7.74456e-09
1.24499e-08
6.33062e-09
6.33812e-10
1.00014e-10
1.44011e-10
3.89644e-10
6.37468e-10
6.25035e-10
3.68219e-10
1.32877e-10
1.96963e-11
8.72364e-13
5.20368e-13
3.01596e-12
1.12278e-11
9.00625e-12
2.63705e-08
1.46601e-07
1.61994e-07
3.99732e-08
5.47744e-08
7.67119e-07
2.07851e-06
2.41705e-06
1.67809e-06
6.20374e-07
1.95911e-07
2.97333e-08
1.26575e-10
1.96014e-08
6.45781e-08
7.3805e-08
6.20462e-08
6.94865e-08
5.58492e-08
4.19598e-08
2.90398e-08
8.958e-09
4.14957e-09
2.00986e-09
2.48456e-10
1.033e-12
5.44129e-10
3.84672e-09
8.03292e-10
1.13036e-10
4.3171e-10
1.0906e-09
1.46399e-09
1.39613e-09
9.90659e-10
5.74776e-10
1.7171e-10
1.73774e-11
2.94314e-11
4.32807e-11
2.23316e-06
1.27233e-07
7.46496e-08
4.66184e-09
7.71319e-08
3.45748e-07
1.36915e-06
1.87395e-06
1.16423e-06
4.72926e-07
4.1449e-07
3.05958e-07
1.10973e-08
5.77607e-09
6.15216e-08
9.54957e-08
6.82256e-08
4.79317e-08
4.35099e-08
7.31393e-09
7.95325e-09
1.95684e-08
9.00326e-09
3.81929e-08
3.66441e-10
2.74819e-13
9.40305e-11
4.00004e-10
9.7821e-10
1.78771e-09
2.56228e-09
1.75575e-09
1.36978e-09
1.32499e-09
1.10923e-09
8.71783e-10
5.93016e-10
5.11327e-10
4.50427e-10
5.0257e-10
1.99708e-08
2.40718e-07
2.22903e-07
2.03825e-07
1.81969e-10
5.02581e-07
2.17862e-06
2.43162e-06
1.70798e-06
7.55699e-07
6.87715e-07
7.23079e-07
1.0946e-07
1.68461e-09
5.48844e-08
9.19722e-08
6.42258e-08
5.91224e-08
4.19568e-08
2.48215e-08
6.17039e-10
6.43898e-09
1.46396e-08
2.47506e-09
5.69544e-09
1.1729e-08
5.67309e-09
3.01496e-09
1.9384e-09
1.33241e-09
1.01731e-09
7.7696e-10
8.62281e-10
9.83806e-10
8.08095e-10
5.06124e-10
3.01233e-10
1.01601e-10
1.63157e-10
3.19633e-10
4.26745e-08
5.29653e-08
1.15439e-08
5.74048e-08
4.72563e-08
6.42907e-09
4.05505e-07
1.81701e-06
1.69481e-06
1.15995e-06
1.28704e-06
1.19519e-06
8.58141e-08
3.74401e-08
9.25457e-08
8.49696e-08
1.80842e-08
2.92997e-10
3.40368e-08
3.91827e-08
3.05375e-08
2.18684e-08
2.64323e-08
3.92168e-09
2.74007e-12
2.97796e-11
1.78823e-09
1.0857e-08
1.62664e-08
9.32582e-09
3.51952e-09
9.2386e-10
1.31452e-10
7.50188e-14
7.51693e-11
2.76234e-10
7.58604e-11
1.85541e-10
4.47624e-10
5.70031e-10
2.15264e-07
3.01237e-08
2.58576e-09
2.14925e-08
1.2494e-07
1.90662e-07
8.88714e-07
1.5938e-06
1.55097e-06
1.16077e-06
1.20005e-06
8.61084e-07
4.46107e-10
9.9587e-08
7.48308e-08
6.54246e-08
6.05495e-08
3.88305e-08
2.50323e-08
3.33467e-08
3.27432e-08
2.81008e-08
2.51347e-08
2.17572e-08
1.3032e-08
2.76903e-09
4.103e-10
3.54372e-10
9.93911e-10
3.46879e-09
8.00083e-09
8.95661e-09
4.35641e-09
6.73716e-10
3.12154e-12
1.19542e-09
1.68131e-09
2.66646e-11
2.15913e-10
3.31919e-10
4.53645e-08
4.98549e-08
7.99282e-08
3.42332e-09
1.74641e-07
5.15864e-07
1.28632e-06
1.40045e-06
1.14375e-06
1.00612e-06
6.80327e-07
1.57352e-08
1.12784e-07
1.26773e-07
9.28873e-08
6.3608e-08
5.16514e-08
4.45899e-08
3.73553e-08
3.59592e-08
3.54361e-08
3.03196e-08
1.16893e-08
3.5575e-09
1.12151e-08
2.15996e-10
1.53919e-09
1.29547e-08
6.19212e-09
3.82806e-09
3.21065e-09
3.95499e-09
4.88264e-09
5.0852e-09
3.7745e-09
1.65994e-09
2.50843e-10
6.25249e-11
5.68171e-10
7.248e-10
2.1506e-08
3.82773e-08
4.38317e-08
2.10244e-08
3.89304e-09
2.21531e-08
1.69728e-07
1.46765e-07
3.27511e-09
3.31292e-08
6.81571e-08
9.72195e-08
6.29851e-08
7.64257e-08
5.44342e-08
3.17534e-08
3.84441e-08
3.75795e-08
3.87631e-08
3.00388e-08
2.42051e-08
1.62934e-08
7.98415e-09
1.3978e-08
1.54215e-08
1.30679e-08
7.42182e-08
2.05162e-08
5.11906e-09
2.93786e-09
4.84575e-09
1.84059e-08
7.57838e-10
3.97025e-09
2.93716e-09
2.12601e-09
1.24997e-09
6.48204e-10
1.03947e-10
1.72242e-10
1.894e-08
2.71695e-08
3.99384e-08
6.12989e-08
5.40725e-08
5.12987e-08
4.73994e-08
4.43312e-08
5.45122e-08
5.57154e-08
6.41419e-08
8.3994e-08
6.65847e-08
4.56973e-08
4.39742e-08
4.72265e-08
5.11687e-08
2.76327e-08
6.3958e-10
1.2139e-08
1.64184e-08
2.07165e-08
5.98674e-08
2.31346e-07
3.68185e-09
6.85725e-09
2.13199e-10
2.40329e-10
6.91182e-09
1.63422e-09
8.21671e-10
5.05291e-09
9.85616e-09
1.2026e-08
5.54053e-09
4.15285e-10
4.93488e-11
4.25277e-10
1.09581e-09
9.34161e-10
3.39622e-08
2.87738e-08
2.55977e-08
4.07417e-08
5.09439e-08
5.00262e-08
6.04642e-08
6.0345e-08
5.86963e-08
6.07647e-08
3.2795e-08
5.55879e-08
5.98789e-08
5.45245e-08
4.15116e-08
3.04937e-08
3.33758e-08
3.05962e-08
1.95052e-08
2.52421e-08
2.11191e-08
2.43013e-08
2.36612e-08
1.75297e-08
1.55171e-08
1.83936e-08
2.98546e-09
1.28421e-10
1.23407e-10
2.36271e-10
1.04194e-09
3.23538e-09
6.11846e-09
7.28745e-09
5.30168e-09
2.49909e-09
1.3348e-09
7.8257e-10
9.77338e-10
7.71612e-10
4.00212e-08
2.84762e-08
2.78885e-08
3.66782e-08
4.40761e-08
4.45745e-08
5.09592e-08
5.41543e-08
5.54281e-08
4.897e-08
4.24622e-08
2.24173e-08
4.61341e-08
4.06893e-08
3.98607e-08
3.87261e-08
3.0204e-08
2.5556e-08
2.3282e-08
2.45064e-08
2.14018e-08
2.90532e-09
1.60515e-08
9.78833e-09
7.20671e-11
2.90024e-09
1.16042e-09
1.36361e-08
6.377e-08
1.33551e-07
7.69215e-08
2.61159e-11
3.66733e-09
4.6987e-09
3.65653e-09
2.03251e-09
1.12754e-09
4.35144e-10
6.20699e-10
6.18853e-10
3.39881e-08
2.45128e-08
2.33682e-08
3.26582e-08
3.88741e-08
3.95691e-08
3.9566e-08
4.39795e-08
4.08454e-08
4.22003e-08
4.4411e-08
3.61599e-08
2.70101e-08
3.85605e-08
3.79916e-08
3.28426e-08
2.80067e-08
2.73144e-08
3.38697e-09
8.94889e-09
2.25686e-08
1.25628e-08
1.30529e-08
3.52056e-09
3.85271e-09
1.32179e-08
1.24931e-08
1.29628e-08
6.26681e-09
1.1311e-07
1.18284e-07
4.85555e-08
7.16792e-09
2.17105e-10
1.85652e-10
8.47612e-10
1.60202e-09
1.39053e-09
1.40077e-09
9.50589e-10
3.07075e-08
2.52981e-08
2.32663e-08
2.82868e-08
3.22665e-08
3.49608e-08
3.5993e-08
3.60211e-08
3.34722e-08
2.85403e-08
3.57812e-08
3.13167e-08
2.92714e-08
2.89733e-08
3.0465e-08
2.44081e-08
2.09426e-08
2.92347e-08
2.55848e-08
1.74903e-08
1.6987e-08
1.41803e-08
1.44582e-08
1.45795e-08
7.89324e-10
1.68019e-09
9.21208e-09
1.60523e-11
5.5522e-11
9.67487e-10
3.42701e-09
5.9724e-09
6.928e-09
6.28824e-09
4.72924e-09
3.11436e-09
1.88402e-09
8.41953e-10
5.67918e-10
3.97047e-10
2.42579e-08
2.20001e-08
2.15888e-08
2.42928e-08
2.71253e-08
2.93268e-08
2.94911e-08
2.97412e-08
2.99908e-08
2.96492e-08
2.26092e-08
2.99426e-08
3.20673e-08
2.38442e-08
2.35021e-08
2.90131e-08
2.59117e-08
1.61998e-08
2.04785e-08
1.73339e-08
1.89856e-08
5.24163e-09
6.48397e-09
1.36423e-08
2.5183e-09
2.93861e-10
3.50441e-09
3.45193e-08
8.02199e-08
5.42474e-08
1.02638e-08
1.19331e-09
1.29635e-09
2.06006e-09
2.34227e-09
1.61329e-09
1.58184e-09
9.53846e-10
8.91199e-10
7.59909e-10
2.30195e-08
2.12482e-08
1.97554e-08
2.21695e-08
2.31514e-08
2.35779e-08
2.53857e-08
2.53902e-08
2.3802e-08
2.40069e-08
2.5443e-08
1.97408e-08
2.38072e-08
2.40879e-08
2.24862e-08
1.87751e-08
2.18268e-08
1.80743e-08
1.64777e-08
1.4626e-08
1.90475e-08
1.40162e-08
8.40683e-09
9.20885e-09
8.74467e-09
9.67494e-09
1.06905e-08
8.59229e-09
5.6493e-09
4.27316e-09
4.65624e-09
5.34965e-09
5.23669e-09
4.52497e-09
3.638e-09
2.62907e-09
1.9044e-09
1.09966e-09
8.58283e-10
4.32071e-10
1.92894e-08
1.84104e-08
1.80096e-08
1.86903e-08
2.03454e-08
2.07931e-08
2.00136e-08
2.16101e-08
2.1791e-08
1.96582e-08
2.1718e-08
2.1973e-08
1.92887e-08
1.9878e-08
2.2847e-08
1.97085e-08
1.73464e-08
1.95e-08
2.03475e-08
1.62883e-08
1.45341e-08
1.54753e-08
1.60032e-08
1.41722e-08
1.03886e-08
6.26688e-09
3.89229e-09
4.93592e-09
6.93673e-09
7.88203e-09
7.64044e-09
6.53974e-09
5.15089e-09
3.84113e-09
2.77546e-09
2.01726e-09
1.4885e-09
1.02454e-09
8.00983e-10
6.91445e-10
1.7784e-08
1.70747e-08
1.62045e-08
1.67702e-08
1.69833e-08
1.71608e-08
1.79484e-08
1.72571e-08
1.74763e-08
1.85597e-08
1.72906e-08
1.76385e-08
1.95708e-08
1.79155e-08
1.66538e-08
1.90967e-08
1.92349e-08
1.62849e-08
1.53016e-08
1.66932e-08
1.68293e-08
1.44229e-08
1.10055e-08
9.36826e-09
9.84172e-09
9.8664e-09
9.27426e-09
8.37122e-09
7.17692e-09
5.83596e-09
4.81725e-09
4.06056e-09
3.55186e-09
2.95574e-09
2.44031e-09
1.7877e-09
1.33503e-09
7.96215e-10
6.1026e-10
4.22745e-10
1.57147e-08
1.50909e-08
1.44936e-08
1.44708e-08
1.47702e-08
1.46759e-08
1.44366e-08
1.50172e-08
1.50066e-08
1.46948e-08
1.57158e-08
1.5792e-08
1.51996e-08
1.64398e-08
1.70994e-08
1.59721e-08
1.59506e-08
1.70708e-08
1.68226e-08
1.51057e-08
1.42511e-08
1.43195e-08
1.37865e-08
1.22232e-08
1.02114e-08
8.17415e-09
6.80013e-09
6.41591e-09
6.55116e-09
6.45234e-09
5.94341e-09
5.11089e-09
4.14603e-09
3.19865e-09
2.32677e-09
1.63085e-09
1.11894e-09
7.98056e-10
7.0026e-10
6.76362e-10
1.4331e-08
1.37498e-08
1.29718e-08
1.2691e-08
1.25114e-08
1.23411e-08
1.23616e-08
1.22481e-08
1.25149e-08
1.29101e-08
1.29215e-08
1.34899e-08
1.4083e-08
1.3912e-08
1.42075e-08
1.51869e-08
1.53215e-08
1.46671e-08
1.45129e-08
1.45542e-08
1.40153e-08
1.27466e-08
1.11575e-08
9.69842e-09
8.98945e-09
8.53524e-09
7.93573e-09
7.1532e-09
6.27212e-09
5.17656e-09
4.17492e-09
3.21452e-09
2.50151e-09
1.83702e-09
1.4348e-09
1.02443e-09
8.55321e-10
5.93138e-10
5.48349e-10
4.57226e-10
1.31391e-08
1.2429e-08
1.1631e-08
1.11736e-08
1.09185e-08
1.06312e-08
1.05446e-08
1.07323e-08
1.09436e-08
1.12591e-08
1.17356e-08
1.18636e-08
1.18782e-08
1.21594e-08
1.20861e-08
1.14346e-08
1.10032e-08
1.06362e-08
9.90789e-09
8.59231e-09
7.34779e-09
6.6254e-09
6.18704e-09
5.63785e-09
5.02379e-09
4.27993e-09
3.62245e-09
3.06771e-09
2.79853e-09
2.48951e-09
2.23212e-09
1.82983e-09
1.48098e-09
1.07855e-09
8.46048e-10
6.18045e-10
5.61253e-10
4.37942e-10
4.77774e-10
3.46027e-10
1.19998e-08
1.13307e-08
1.04726e-08
9.83276e-09
9.43073e-09
9.15547e-09
9.05378e-09
9.02213e-09
8.97493e-09
8.64849e-09
7.81437e-09
6.59193e-09
4.89777e-09
2.88935e-09
1.33723e-09
5.13968e-10
1.40956e-10
1.35364e-11
5.03743e-13
6.43844e-12
5.8118e-12
2.40078e-12
2.62521e-12
1.81374e-12
2.10674e-13
1.90068e-14
2.32463e-12
1.35087e-11
3.18982e-11
3.2358e-11
2.52854e-11
1.39781e-11
9.6978e-12
5.70947e-12
5.61409e-12
3.95151e-12
4.15418e-12
2.92543e-12
2.39907e-12
1.77723e-12
2.48264e-09
2.10983e-09
1.82369e-09
1.76204e-09
1.78675e-09
1.79953e-09
1.82792e-09
1.76856e-09
1.51194e-09
1.17414e-09
7.99207e-10
3.9987e-10
1.20253e-10
1.45922e-11
5.3803e-13
1.95537e-11
1.05422e-10
2.12247e-10
2.5404e-10
2.35986e-10
1.8404e-10
1.2741e-10
7.71009e-11
3.5337e-11
9.5756e-12
1.27986e-12
4.91299e-14
8.31084e-15
3.60388e-14
1.30117e-13
2.43128e-13
4.20464e-13
6.47626e-13
8.50399e-13
1.09804e-12
1.05909e-12
1.21554e-12
8.41666e-13
9.4114e-13
3.95136e-13
1.97102e-11
1.72041e-11
1.83345e-11
2.3369e-11
2.97376e-11
3.56006e-11
4.11191e-11
4.37774e-11
4.11442e-11
3.28155e-11
2.02709e-11
9.39457e-12
2.64095e-12
1.27985e-13
5.81234e-13
5.03286e-12
1.31498e-11
2.21125e-11
2.85599e-11
2.77385e-11
1.95733e-11
1.05195e-11
4.42605e-12
1.46287e-12
3.47224e-13
4.11643e-14
1.55389e-16
1.25319e-14
8.00496e-14
1.41909e-13
1.75925e-13
1.47632e-13
1.26841e-13
8.21353e-14
6.39103e-14
3.7424e-14
2.70165e-14
1.54268e-14
7.67644e-15
4.72964e-15
2.82219e-14
1.62656e-14
3.13426e-14
6.48687e-14
1.09428e-13
1.65827e-13
2.31422e-13
2.6809e-13
2.54852e-13
2.13254e-13
1.36984e-13
4.00926e-14
3.03342e-15
2.86593e-14
2.04812e-13
5.94833e-13
9.62547e-13
9.52709e-13
5.92766e-13
2.28244e-13
5.84003e-14
8.68802e-15
5.88021e-16
2.76491e-15
1.11084e-14
1.89439e-14
1.89842e-14
1.22739e-14
6.3049e-15
3.29593e-15
1.85635e-15
1.42379e-15
1.00284e-15
9.67479e-16
7.2268e-16
6.26699e-16
5.08528e-16
2.81317e-16
4.26466e-16
1.81886e-16
)
;

boundaryField
{
    inlet
    {
        type            calculated;
        value           nonuniform List<scalar> 
20
(
1.56031e-34
1.02699e-32
1.24933e-32
3.51596e-33
4.57123e-33
3.73684e-33
3.90229e-33
3.7411e-33
3.39484e-33
2.8174e-33
1.86245e-33
9.5857e-34
1.44454e-33
1.14845e-33
4.20221e-34
8.05227e-34
2.34784e-34
6.20327e-33
5.47598e-33
1.43124e-34
)
;
    }
    outlet
    {
        type            calculated;
        value           nonuniform List<scalar> 
27
(
1.03149e-33
1.6207e-35
7.58028e-34
1.11606e-36
9.74417e-35
2.50498e-33
8.79309e-35
1.97799e-33
3.79399e-35
4.91195e-35
3.49648e-36
1.16458e-33
1.49873e-33
2.4955e-33
2.4048e-33
1.2734e-33
9.27629e-36
5.58642e-38
1.27228e-37
4.51589e-38
6.72692e-38
1.53803e-37
1.91043e-41
1.62417e-35
7.51191e-34
2.1426e-33
9.48697e-34
)
;
    }
    lowerWall
    {
        type            fixedValue;
        value           uniform 0;
    }
    upperWall
    {
        type            fixedValue;
        value           uniform 0;
    }
    defaultFaces
    {
        type            empty;
    }
}


// ************************************************************************* //
