/*--------------------------------*- C++ -*----------------------------------*\
| =========                 |                                                 |
| \\      /  F ield         | OpenFOAM: The Open Source CFD Toolbox           |
|  \\    /   O peration     | Version:  2112                                  |
|   \\  /    A nd           | Website:  www.openfoam.com                      |
|    \\/     M anipulation  |                                                 |
\*---------------------------------------------------------------------------*/
FoamFile
{
    version     2.0;
    format      ascii;
    arch        "LSB;label=32;scalar=64";
    class       volScalarField;
    location    "0.29";
    object      p;
}
// * * * * * * * * * * * * * * * * * * * * * * * * * * * * * * * * * * * * * //

dimensions      [0 2 -2 0 0 0 0];

internalField   nonuniform List<scalar> 
1880
(
0.0032339
0.00309983
0.00300561
0.00295907
0.00293051
0.00291012
0.00288913
0.00287158
0.00285511
0.0028407
0.00283103
0.0028242
0.00281854
0.00281901
0.00281985
0.0028273
0.00283751
0.00285513
0.00288068
0.00291083
0.00294835
0.00299569
0.00305977
0.00313569
0.00324534
0.00336778
0.00351092
0.0036925
0.00385782
0.00400622
0.00305292
0.00302371
0.00298008
0.00294494
0.00291586
0.0028945
0.00287531
0.00286099
0.00284713
0.00283106
0.00282291
0.0028142
0.00280932
0.00280583
0.00280814
0.00281342
0.00282221
0.00283866
0.00286002
0.00289056
0.00291481
0.00296991
0.00300922
0.00310671
0.00318223
0.00331193
0.00343983
0.00358917
0.00374259
0.00390535
0.00301954
0.00300118
0.00296932
0.00293815
0.00291074
0.00288737
0.00286821
0.0028538
0.0028406
0.00282415
0.00281509
0.00280661
0.00279767
0.00279269
0.00279389
0.00279874
0.00280271
0.00281238
0.00283135
0.00285434
0.00288146
0.00292013
0.00296381
0.0030278
0.00309524
0.0031851
0.00327074
0.0033745
0.00345245
0.00350217
0.00296127
0.00295276
0.00293479
0.00291373
0.00289293
0.00287164
0.0028537
0.00283933
0.00282693
0.00280982
0.00280114
0.00279213
0.00278172
0.00277415
0.00277208
0.00277631
0.00277343
0.00278188
0.00279156
0.0028113
0.00282855
0.00285566
0.00288772
0.00292965
0.00298118
0.00302822
0.00309139
0.00313738
0.00316674
0.00318667
0.00293232
0.00292715
0.00291511
0.00289856
0.00288188
0.00286134
0.00284401
0.00282882
0.00281611
0.00279787
0.00278829
0.00277833
0.00276589
0.0027553
0.00275035
0.00275059
0.00274518
0.00274672
0.0027501
0.00276224
0.0027709
0.00278651
0.00280502
0.00282965
0.00285639
0.00287985
0.00290399
0.00291235
0.00290588
0.00287624
0.00290487
0.00290095
0.0028916
0.00287823
0.00286482
0.00284629
0.00282976
0.00281493
0.0028016
0.00278276
0.00277142
0.00276125
0.00274649
0.00273349
0.00272486
0.00272164
0.00271267
0.00270625
0.00270552
0.00270691
0.00270991
0.00271123
0.00271691
0.00272339
0.00272945
0.00272783
0.0027243
0.00270174
0.00266238
0.00259747
0.00288417
0.00288111
0.00287362
0.00286221
0.00285102
0.00283367
0.00281774
0.00280257
0.00278855
0.00276852
0.00275544
0.00274387
0.00272682
0.00271115
0.0026987
0.0026917
0.00267798
0.00266584
0.00265809
0.00265151
0.00264544
0.00263495
0.00262781
0.00261845
0.00260535
0.00258414
0.00255504
0.00250773
0.00244218
0.00235347
0.00286745
0.00286483
0.00285808
0.00284766
0.00283733
0.00282084
0.00280478
0.00278958
0.00277439
0.00275352
0.00273817
0.00272529
0.00270591
0.00268692
0.0026716
0.00265935
0.00264241
0.00262255
0.00260961
0.00259478
0.00257927
0.00255921
0.00253891
0.00251541
0.00248696
0.00244658
0.00239856
0.00233109
0.00224576
0.00213777
0.00285443
0.00285193
0.00284548
0.00283549
0.0028255
0.0028093
0.00279289
0.00277727
0.00276084
0.00273887
0.0027213
0.00270689
0.00268475
0.0026628
0.0026439
0.00262749
0.002606
0.00257989
0.0025611
0.0025386
0.00251461
0.00248496
0.00245291
0.00241753
0.00237439
0.00231938
0.0022553
0.00217175
0.00207091
0.00194965
0.00284482
0.00284231
0.00283578
0.00282581
0.00281554
0.00279922
0.00278199
0.00276572
0.00274786
0.00272454
0.00270491
0.00268837
0.00266392
0.00263832
0.00261661
0.00259548
0.00256981
0.002538
0.00251284
0.00248427
0.00245138
0.00241348
0.00237132
0.00232436
0.0022703
0.00220244
0.00212506
0.00202987
0.00191725
0.00178581
0.00283864
0.00283595
0.00282904
0.00281868
0.0028077
0.00279077
0.00277236
0.00275515
0.00273564
0.00271087
0.00268904
0.00267049
0.00264341
0.00261458
0.00258964
0.00256443
0.00253443
0.00249739
0.00246629
0.00243187
0.0023912
0.00234574
0.00229436
0.00223812
0.00217443
0.00209617
0.00200857
0.00190433
0.00178257
0.00164413
0.00283593
0.00283297
0.00282542
0.00281433
0.00280225
0.0027843
0.00276445
0.00274598
0.0027248
0.0026983
0.00267454
0.0026536
0.00262417
0.0025919
0.00256393
0.00253497
0.00250056
0.00245912
0.00242203
0.00238248
0.00233501
0.00228224
0.00222357
0.00215892
0.00208725
0.00200124
0.00190508
0.0017942
0.00166615
0.00152263
0.00283703
0.00283346
0.00282491
0.00281257
0.00279876
0.00277916
0.00275742
0.00273749
0.00271452
0.00268638
0.00266067
0.00263752
0.00260561
0.00257019
0.00253924
0.00250691
0.00246839
0.00242281
0.0023804
0.00233607
0.00228274
0.00222366
0.00215861
0.00208717
0.00200891
0.00191667
0.00181389
0.0016981
0.00156574
0.00141865
0.00284273
0.00283856
0.00282881
0.00281495
0.00279911
0.00277761
0.00275385
0.00273216
0.00270723
0.00267716
0.00264955
0.00262388
0.00258934
0.00255083
0.00251696
0.00248158
0.00243897
0.0023896
0.00234237
0.00229351
0.00223532
0.00217045
0.00210014
0.00202316
0.00193934
0.00184262
0.00173487
0.00161552
0.00148064
0.00133151
0.00285287
0.00284714
0.00283497
0.00281819
0.00279912
0.00277486
0.00274881
0.00272527
0.00269859
0.00266691
0.00263761
0.00260965
0.00257276
0.00253187
0.00249575
0.00245771
0.0024114
0.00235865
0.00230746
0.00225463
0.00219226
0.00212248
0.00204761
0.00196617
0.00187785
0.00177767
0.00166644
0.00154461
0.00140845
0.00125821
0.00287211
0.00286479
0.00284961
0.00282895
0.0028057
0.00277825
0.00274975
0.00272427
0.00269577
0.00266254
0.00263141
0.00260067
0.00256118
0.00251796
0.00247928
0.0024382
0.00238804
0.002332
0.00227731
0.00222065
0.0021545
0.00208044
0.0020017
0.00191676
0.00182482
0.00172225
0.00160899
0.00148573
0.00134938
0.00119951
0.00289284
0.00288123
0.00286029
0.00283407
0.00280648
0.00277646
0.0027464
0.00271953
0.00268957
0.00265485
0.00262183
0.00258839
0.00254684
0.00250217
0.00246142
0.00241746
0.00236441
0.0023068
0.00224995
0.00218984
0.00212009
0.00204227
0.00196009
0.00187234
0.00177783
0.00167389
0.00156011
0.00143673
0.00130103
0.00115159
0.00294627
0.00292414
0.00288937
0.00285181
0.0028171
0.00278367
0.00275192
0.00272315
0.0026911
0.00265461
0.00261927
0.00258288
0.00253975
0.00249451
0.00245194
0.00240495
0.00234907
0.00228941
0.00222992
0.00216609
0.00209302
0.00201228
0.00192699
0.00183666
0.00174001
0.00163533
0.00152189
0.00139913
0.00126503
0.00111796
0.00297517
0.0029408
0.00289553
0.00285298
0.00281634
0.00278286
0.00275078
0.00272068
0.00268694
0.00264909
0.00261205
0.00257367
0.00253013
0.00248439
0.00243858
0.00238767
0.00233024
0.00227095
0.00220979
0.00214179
0.00206465
0.00198034
0.00189212
0.00180009
0.00170302
0.0016
0.00148942
0.00136929
0.00123778
0.00109286
0.00315482
0.00301516
0.00291772
0.00286374
0.00282868
0.00279513
0.00276043
0.00272624
0.0026896
0.00265102
0.00261288
0.00257296
0.00252943
0.00248399
0.0024363
0.00238342
0.0023254
0.00226528
0.00220214
0.00213273
0.00205555
0.00197111
0.00188123
0.0017874
0.00168864
0.00158526
0.00147512
0.00135636
0.00122717
0.00108592
0.00414777
0.0038687
0.0035627
0.00294779
0.00239405
0.00165932
0.000918933
6.92006e-05
-0.00135624
-0.00266742
0.00393989
0.00353867
0.00315368
0.00254243
0.00190131
0.00115836
0.000369921
-0.000520655
-0.00169848
-0.00298293
0.00353025
0.00316317
0.00275102
0.00226606
0.00165442
0.00107884
0.000249426
-0.000475679
-0.00165509
-0.00256075
0.0031738
0.00280262
0.00243373
0.00193242
0.00136788
0.000725058
-2.32106e-05
-0.000795102
-0.00169383
-0.00258072
0.00281534
0.00250229
0.00209754
0.00166311
0.00112298
0.000582981
-9.95363e-05
-0.000820686
-0.00162909
-0.00240125
0.00251577
0.00220593
0.0018494
0.00141271
0.000930168
0.000382131
-0.000241484
-0.000934416
-0.00162016
-0.00229622
0.00224488
0.00196886
0.00160887
0.00120445
0.000751538
0.000255568
-0.000306082
-0.000932363
-0.00153884
-0.00213974
0.00201391
0.00174756
0.00141471
0.00102864
0.00061298
0.000142073
-0.000374499
-0.000949501
-0.00149204
-0.00201983
0.0018108
0.00156331
0.00124427
0.00088157
0.000492264
5.87045e-05
-0.000415099
-0.000929338
-0.0014158
-0.00188997
0.00163829
0.00140208
0.00110261
0.000760755
0.000398744
-5.8244e-06
-0.000443525
-0.000908737
-0.00135051
-0.00177581
0.00148961
0.00126524
0.000982236
0.000661385
0.000320792
-5.3973e-05
-0.000457549
-0.000877601
-0.00127926
-0.00166707
0.00136448
0.00114938
0.000883336
0.00058141
0.000261295
-8.79273e-05
-0.000460605
-0.000843835
-0.00121215
-0.00156727
0.00125753
0.00105129
0.000800156
0.000516489
0.000214296
-0.000111781
-0.000456459
-0.000807693
-0.00114762
-0.00147623
0.00116987
0.000971154
0.00073382
0.000466504
0.000180771
-0.000125354
-0.000445621
-0.000770726
-0.00108699
-0.00139329
0.00109539
0.00090318
0.000678184
0.000425995
0.000155501
-0.000132676
-0.000432008
-0.000735163
-0.00103176
-0.00131959
0.00103799
0.000851669
0.000637096
0.000397891
0.000140902
-0.000132094
-0.000414521
-0.00070045
-0.000981274
-0.00125428
0.000989506
0.000807462
0.000602284
0.000374991
0.000130626
-0.00012855
-0.000396726
-0.000668658
-0.000936819
-0.00119807
0.000958217
0.000780388
0.000582162
0.000363719
0.000129108
-0.000119585
-0.00037727
-0.000639254
-0.00089853
-0.0011511
0.000933817
0.000758842
0.00056676
0.000356728
0.000131164
-0.000108401
-0.000357068
-0.000610909
-0.000864084
-0.00111076
0.000930615
0.000757823
0.00056769
0.000360241
0.00013777
-9.8232e-05
-0.000343212
-0.000594069
-0.000844756
-0.00109176
-0.00569233
-0.00588186
-0.00594347
-0.00621884
-0.00753768
-0.00986414
-0.0124959
-0.0138053
-0.0135213
-0.0117918
-0.00917786
-0.00615046
-0.00314974
-0.000671313
0.00115664
0.00225478
0.0027418
0.0028456
0.00270757
0.00245609
0.00216607
0.00187895
0.00161442
0.00138035
0.00117588
0.000997635
0.000843122
0.000709629
0.000594706
0.000496459
0.000412688
0.000341436
0.000280459
0.000228003
0.000182195
0.000141754
0.000105437
7.2352e-05
4.19046e-05
1.33208e-05
-0.00580418
-0.00601774
-0.00598055
-0.00643783
-0.00819873
-0.0108318
-0.0135465
-0.0148186
-0.0143488
-0.0124947
-0.00975092
-0.00666755
-0.00356819
-0.000983912
0.000910652
0.00205812
0.0025894
0.00272471
0.00261439
0.00238462
0.00211149
0.00183612
0.00157921
0.00135111
0.00115177
0.000978415
0.000827949
0.00069791
0.000586079
0.000490548
0.000409066
0.000339574
0.000279868
0.000228184
0.000182854
0.000142575
0.000106304
7.31058e-05
4.24762e-05
1.36597e-05
-0.00556189
-0.005816
-0.00619435
-0.00722708
-0.00935044
-0.0121306
-0.0150621
-0.0163446
-0.0156992
-0.0136158
-0.0107358
-0.00755074
-0.00432802
-0.00158988
0.000429928
0.0016526
0.00225167
0.00244551
0.00238579
0.0021988
0.00196367
0.00172076
0.00149034
0.00128345
0.00110144
0.000942705
0.000804532
0.000684288
0.000579777
0.000488982
0.000410193
0.000342028
0.000282677
0.000230877
0.000185262
0.000144663
0.000108088
7.45611e-05
4.34789e-05
1.41752e-05
-0.00532745
-0.00548433
-0.00572418
-0.00751755
-0.010247
-0.0133767
-0.0164163
-0.0177496
-0.0169373
-0.0146714
-0.0117018
-0.00849059
-0.00516477
-0.00227766
-0.000156909
0.0011386
0.00179919
0.00206474
0.00207798
0.00194951
0.00176334
0.00156398
0.00137016
0.00119263
0.00103529
0.000895387
0.000770172
0.000659162
0.000561122
0.000475469
0.000400619
0.00033548
0.000278356
0.000228211
0.000183776
0.000144046
0.000108027
7.48892e-05
4.39587e-05
1.45132e-05
-0.00516809
-0.00559637
-0.00571326
-0.00787637
-0.0107058
-0.0138811
-0.0170192
-0.0184174
-0.0176244
-0.0153862
-0.0125382
-0.00936107
-0.00594543
-0.0029509
-0.000728786
0.000619423
0.00130571
0.00161936
0.00171136
0.00166185
0.00153857
0.00138697
0.00123005
0.0010822
0.000949271
0.000830249
0.000722551
0.000624882
0.00053687
0.000458131
0.000388377
0.000326525
0.000271967
0.000223583
0.000180499
0.000141704
0.000106361
7.37553e-05
4.32066e-05
1.42079e-05
-0.00483655
-0.00534591
-0.00513158
-0.00752751
-0.0106284
-0.0139329
-0.0171052
-0.0184817
-0.0177212
-0.0155909
-0.012932
-0.00993879
-0.00657401
-0.00351954
-0.00126008
0.000126782
0.000855659
0.00120547
0.00134714
0.00136121
0.00130375
0.00120959
0.0010955
0.000976772
0.00086663
0.00076694
0.000674321
0.000587705
0.000507942
0.000435541
0.000370601
0.000312702
0.000261411
0.00021581
0.000174938
0.000137993
0.000104134
7.26377e-05
4.28767e-05
1.42408e-05
-0.00525539
-0.00589083
-0.00471662
-0.00726904
-0.0100706
-0.013083
-0.0158556
-0.0172115
-0.0167235
-0.0148731
-0.012583
-0.0099001
-0.00675977
-0.00384783
-0.0016974
-0.000377445
0.000379831
0.000802558
0.00102029
0.0010962
0.00108646
0.0010357
0.000960277
0.000871139
0.000781522
0.000698091
0.000619702
0.00054505
0.000474346
0.00040877
0.000349295
0.000295996
0.000248312
0.000205514
0.00016684
0.000131565
9.91583e-05
6.90096e-05
4.05285e-05
1.32995e-05
-0.00511185
-0.0036301
-0.00434963
-0.00677167
-0.00931244
-0.0117848
-0.0140892
-0.0153435
-0.0151464
-0.0137197
-0.0117569
-0.0093713
-0.00655841
-0.00392814
-0.00197278
-0.000788301
-7.11404e-05
0.000384756
0.000673278
0.000829676
0.000883383
0.000872058
0.000825119
0.000761359
0.000693346
0.000625436
0.000558334
0.000493933
0.000433349
0.000376425
0.00032352
0.00027519
0.000231817
0.00019282
0.000157682
0.000125419
9.53657e-05
6.68437e-05
3.95568e-05
1.30762e-05
-0.00417963
-0.00485956
-0.0053148
-0.0067549
-0.00881273
-0.010845
-0.0127119
-0.0136836
-0.0134444
-0.0122934
-0.0106229
-0.00848955
-0.00601221
-0.00377516
-0.00211754
-0.0010423
-0.000350163
0.000102466
0.000394055
0.000573392
0.000669052
0.000699487
0.000681853
0.000639963
0.000590503
0.000540528
0.000491231
0.000440528
0.000388867
0.000339662
0.000294234
0.000252449
0.000213887
0.000178299
0.000145388
0.000114957
8.67433e-05
6.0666e-05
3.57587e-05
1.1351e-05
-0.00368776
-0.00431206
-0.00486052
-0.0063037
-0.00805939
-0.00963
-0.0109887
-0.0116949
-0.0115261
-0.0105884
-0.00912753
-0.00731344
-0.00532268
-0.00353588
-0.00219151
-0.00126845
-0.00060751
-0.000134067
0.000177325
0.000364047
0.000472873
0.000525732
0.000533434
0.000513178
0.000482661
0.000446018
0.000403111
0.000361053
0.000325064
0.000291493
0.000257254
0.00022297
0.000190403
0.000160593
0.000133153
0.000107608
8.28233e-05
5.82385e-05
3.45981e-05
1.21884e-05
-0.00337794
-0.0040954
-0.00477417
-0.00587279
-0.00718745
-0.00834152
-0.00929852
-0.00978233
-0.00965005
-0.00894471
-0.00775936
-0.00630552
-0.0047917
-0.00340815
-0.002271
-0.00142582
-0.000817692
-0.00037908
-6.88118e-05
0.000142608
0.000275964
0.000349263
0.000379149
0.000385507
0.000378797
0.000358784
0.000330846
0.000302269
0.000273844
0.000245456
0.00021829
0.000192896
0.000168323
0.000143014
0.000117904
9.31893e-05
7.0695e-05
4.98115e-05
2.97157e-05
9.62814e-06
-0.00308313
-0.00377228
-0.00444514
-0.00529901
-0.00627708
-0.00713774
-0.00782346
-0.0081856
-0.00810988
-0.00759654
-0.00669353
-0.00556026
-0.00437804
-0.00327836
-0.00232977
-0.00156796
-0.00100048
-0.00058943
-0.000288651
-6.87645e-05
8.33542e-05
0.000176668
0.000227541
0.000254245
0.00026823
0.000269292
0.000254768
0.000230995
0.000208759
0.000191656
0.000176118
0.000158907
0.000140561
0.000122125
0.000104202
8.70899e-05
6.72543e-05
4.7838e-05
2.86903e-05
1.00299e-05
-0.00284082
-0.0034661
-0.00410147
-0.00479371
-0.00555311
-0.006218
-0.00673662
-0.00700013
-0.00692402
-0.00654196
-0.00586748
-0.00497234
-0.00401689
-0.00311654
-0.00232558
-0.00166246
-0.0011405
-0.000745621
-0.00044862
-0.000224939
-6.18403e-05
5.11127e-05
0.000121198
0.000158355
0.00017981
0.000190569
0.000189908
0.000186233
0.000183856
0.000177085
0.000162684
0.000143065
0.00012393
0.000105078
8.6069e-05
6.74014e-05
5.1596e-05
3.63541e-05
2.19791e-05
6.95912e-06
-0.00263592
-0.00318502
-0.00375203
-0.00434143
-0.00494261
-0.00545752
-0.0058352
-0.0060363
-0.00598882
-0.00569162
-0.00517296
-0.00447718
-0.00371179
-0.00297078
-0.0022992
-0.00172069
-0.00125087
-0.000883583
-0.000596491
-0.000374643
-0.000212162
-9.50866e-05
-9.42582e-06
4.97984e-05
8.55026e-05
0.000104007
0.000112799
0.000112888
0.000107031
0.000100863
9.92113e-05
9.96149e-05
9.70062e-05
9.01003e-05
7.96236e-05
6.70573e-05
5.30088e-05
3.82461e-05
2.26559e-05
7.89777e-06
-0.00245775
-0.00293399
-0.00343281
-0.00394305
-0.00443719
-0.00484758
-0.00515175
-0.00530174
-0.00526355
-0.00502655
-0.00461633
-0.00406936
-0.00345385
-0.00283968
-0.00226827
-0.00176217
-0.00133948
-0.00100191
-0.000730995
-0.000511618
-0.000340318
-0.000213147
-0.000119921
-5.23548e-05
-2.31676e-06
3.75891e-05
6.14835e-05
6.73507e-05
6.76137e-05
6.89784e-05
7.08587e-05
7.08239e-05
6.63602e-05
5.92893e-05
5.06249e-05
4.11868e-05
3.17864e-05
2.24475e-05
1.3221e-05
4.17655e-06
-0.00229317
-0.00271046
-0.0031481
-0.00359011
-0.00399955
-0.00433347
-0.00457638
-0.00470069
-0.00467158
-0.00448164
-0.00415438
-0.0037198
-0.00322153
-0.0027096
-0.00222472
-0.00178681
-0.00140601
-0.00108769
-0.000827971
-0.000618284
-0.000450043
-0.000316762
-0.00021416
-0.000139078
-8.52984e-05
-4.48468e-05
-1.45833e-05
7.63635e-06
2.70307e-05
4.41712e-05
5.45594e-05
5.91638e-05
5.95314e-05
5.70529e-05
5.25374e-05
4.62167e-05
3.83847e-05
2.88794e-05
1.81458e-05
6.19589e-06
-0.00214225
-0.00251366
-0.0028961
-0.00328046
-0.00363289
-0.00391468
-0.00411559
-0.00421819
-0.00419781
-0.00404735
-0.00378259
-0.00342685
-0.00301774
-0.00259471
-0.00218361
-0.0018002
-0.00145882
-0.00116814
-0.00092465
-0.000721699
-0.000556985
-0.000425124
-0.000316455
-0.000228861
-0.000158509
-0.000104685
-6.69718e-05
-3.89592e-05
-1.94377e-05
-5.01612e-06
5.90031e-06
1.35886e-05
1.79192e-05
1.93216e-05
1.83547e-05
1.58197e-05
1.23484e-05
8.67232e-06
4.89971e-06
1.5078e-06
-0.0020054
-0.00233733
-0.00267476
-0.00301171
-0.00331692
-0.00356051
-0.003731
-0.00381712
-0.00380328
-0.00368401
-0.0034709
-0.00318209
-0.00284556
-0.00249023
-0.00213637
-0.00180111
-0.00149747
-0.00123113
-0.00100215
-0.000806462
-0.000639952
-0.000500902
-0.000389591
-0.000300738
-0.00023069
-0.000173039
-0.000124402
-8.37578e-05
-5.04641e-05
-2.43199e-05
-4.78454e-06
8.92338e-06
1.78671e-05
2.30509e-05
2.53181e-05
2.50387e-05
2.26258e-05
1.8093e-05
1.18952e-05
4.20956e-06
-0.00188015
-0.00218204
-0.00248357
-0.00278114
-0.00305038
-0.0032643
-0.00341297
-0.00349027
-0.00348222
-0.00338505
-0.00321257
-0.00297749
-0.00269675
-0.00239542
-0.00209404
-0.00180313
-0.00153182
-0.00128682
-0.00107049
-0.000883751
-0.000725886
-0.000591861
-0.000474952
-0.000375416
-0.000293289
-0.000226365
-0.000171599
-0.00012834
-9.4902e-05
-6.85596e-05
-4.77824e-05
-3.18824e-05
-2.02861e-05
-1.22642e-05
-7.09637e-06
-3.96344e-06
-2.26129e-06
-1.29996e-06
-8.34491e-07
-4.02045e-07
-0.00176843
-0.00204533
-0.00231778
-0.00258357
-0.00282212
-0.00301297
-0.00314647
-0.00321509
-0.00321276
-0.00313821
-0.00299661
-0.00280086
-0.00256889
-0.00231671
-0.00205624
-0.00179924
-0.00155686
-0.00133471
-0.00113378
-0.0009543
-0.00079526
-0.000656007
-0.000536648
-0.000435899
-0.000351256
-0.000279714
-0.000218242
-0.000165677
-0.000121647
-8.57615e-05
-5.7255e-05
-3.52635e-05
-1.88077e-05
-6.99897e-06
1.0246e-06
5.81971e-06
7.94401e-06
7.70542e-06
5.69765e-06
2.08768e-06
-0.00166865
-0.00192638
-0.00217585
-0.00241559
-0.0026304
-0.00280228
-0.00292307
-0.00298799
-0.00299058
-0.00293078
-0.00281621
-0.00265589
-0.00246124
-0.00224616
-0.0020224
-0.00179915
-0.00158364
-0.00137984
-0.00118985
-0.00101686
-0.000863747
-0.000728359
-0.000606558
-0.000498062
-0.000404686
-0.000324798
-0.000257436
-0.00020172
-0.000156827
-0.000120583
-9.13728e-05
-6.81291e-05
-5.0003e-05
-3.61463e-05
-2.56994e-05
-1.78121e-05
-1.1746e-05
-7.23053e-06
-3.98461e-06
-1.47152e-06
-0.00158116
-0.00182358
-0.00205481
-0.00227391
-0.00246843
-0.0026249
-0.00273632
-0.00279724
-0.002804
-0.00275859
-0.00266555
-0.00253202
-0.00236912
-0.0021881
-0.00199666
-0.00180074
-0.00160725
-0.00142136
-0.00124486
-0.00107939
-0.000926785
-0.000787013
-0.000660434
-0.000548574
-0.000451225
-0.000367517
-0.000294724
-0.000232214
-0.000178784
-0.000134328
-9.862e-05
-7.01498e-05
-4.79079e-05
-3.11184e-05
-1.89458e-05
-1.03837e-05
-4.91299e-06
-1.65783e-06
-3.689e-08
2.9008e-07
-0.0015051
-0.00173597
-0.00195309
-0.00215562
-0.00233435
-0.00247824
-0.00258107
-0.00263913
-0.00264977
-0.00261483
-0.002539
-0.0024292
-0.00229398
-0.00214089
-0.00197573
-0.00180521
-0.00163481
-0.00146611
-0.00129946
-0.00113801
-0.000986521
-0.000846613
-0.000717512
-0.000599851
-0.000495262
-0.000403629
-0.000324788
-0.000258471
-0.000203906
-0.000158657
-0.000122048
-9.24502e-05
-6.88933e-05
-5.02821e-05
-3.56758e-05
-2.46414e-05
-1.63905e-05
-1.02703e-05
-5.64503e-06
-1.89589e-06
-0.00144064
-0.00166306
-0.00186939
-0.00205824
-0.00222313
-0.00235633
-0.00245232
-0.00250771
-0.00252088
-0.00249465
-0.00243367
-0.00234356
-0.00223124
-0.00210309
-0.00196367
-0.0018166
-0.00166446
-0.00150948
-0.0013533
-0.00119857
-0.00104771
-0.000903336
-0.000767575
-0.000643036
-0.00053212
-0.00043548
-0.000351744
-0.000279806
-0.000219042
-0.000169122
-0.000127932
-9.47737e-05
-6.83737e-05
-4.77329e-05
-3.19649e-05
-2.02485e-05
-1.18651e-05
-6.11761e-06
-2.46292e-06
-5.26234e-07
-0.00138755
-0.00160489
-0.00180433
-0.00198329
-0.00213678
-0.00225994
-0.00234902
-0.00240133
-0.00241631
-0.00239656
-0.00234669
-0.00227289
-0.00218155
-0.00207672
-0.00196006
-0.00183367
-0.00169898
-0.00155657
-0.00140731
-0.00125388
-0.0011005
-0.000951848
-0.000811548
-0.000682018
-0.000564615
-0.000460776
-0.000371107
-0.000295244
-0.000232146
-0.000180498
-0.000138157
-0.000104122
-7.70416e-05
-5.57573e-05
-3.92374e-05
-2.66417e-05
-1.72562e-05
-1.03343e-05
-5.37659e-06
-1.64646e-06
-0.00134334
-0.00155775
-0.00175284
-0.00192477
-0.00207077
-0.00218703
-0.00227003
-0.00231888
-0.00233437
-0.00231893
-0.00227807
-0.00221792
-0.00214342
-0.00205805
-0.00196392
-0.00185906
-0.00174063
-0.00160786
-0.00146249
-0.00130836
-0.00115024
-0.000994234
-0.000845599
-0.000708133
-0.000584393
-0.00047567
-0.0003822
-0.000303222
-0.000237307
-0.000183034
-0.00013875
-0.000103128
-7.47646e-05
-5.25491e-05
-3.54371e-05
-2.25612e-05
-1.31912e-05
-6.63568e-06
-2.49894e-06
-2.80609e-07
-0.0013268
-0.00154053
-0.00173157
-0.00189861
-0.00203987
-0.00215203
-0.00223198
-0.00227893
-0.00229406
-0.00228036
-0.00224316
-0.0021883
-0.00212074
-0.00204387
-0.00195814
-0.00186078
-0.0017488
-0.00162125
-0.00147936
-0.00132647
-0.00116789
-0.00101022
-0.000859485
-0.000719865
-0.000593888
-0.000483058
-0.00038761
-0.000306944
-0.000239757
-0.000184753
-0.000140142
-0.000104474
-7.6154e-05
-5.4056e-05
-3.69678e-05
-2.40934e-05
-1.46079e-05
-7.86016e-06
-3.45201e-06
-6.33706e-07
)
;

boundaryField
{
    inlet
    {
        type            zeroGradient;
    }
    outlet
    {
        type            fixedValue;
        value           uniform 0;
    }
    lowerWall
    {
        type            zeroGradient;
    }
    upperWall
    {
        type            zeroGradient;
    }
    defaultFaces
    {
        type            empty;
    }
}


// ************************************************************************* //
