/*--------------------------------*- C++ -*----------------------------------*\
| =========                 |                                                 |
| \\      /  F ield         | OpenFOAM: The Open Source CFD Toolbox           |
|  \\    /   O peration     | Version:  2112                                  |
|   \\  /    A nd           | Website:  www.openfoam.com                      |
|    \\/     M anipulation  |                                                 |
\*---------------------------------------------------------------------------*/
FoamFile
{
    version     2.0;
    format      ascii;
    arch        "LSB;label=32;scalar=64";
    class       surfaceScalarField;
    location    "0.29";
    object      phi;
}
// * * * * * * * * * * * * * * * * * * * * * * * * * * * * * * * * * * * * * //

dimensions      [0 3 -1 0 0 0 0];

oriented        oriented;

internalField   nonuniform List<scalar> 
3653
(
9.92487e-07
7.51291e-09
9.79312e-07
1.31753e-08
9.63759e-07
1.55524e-08
9.48734e-07
1.50252e-08
9.31687e-07
1.70475e-08
9.15625e-07
1.60613e-08
8.97244e-07
1.83811e-08
8.80318e-07
1.69262e-08
8.61207e-07
1.9111e-08
8.43477e-07
1.773e-08
8.23957e-07
1.95204e-08
8.0607e-07
1.78863e-08
7.86189e-07
1.98817e-08
7.67317e-07
1.88721e-08
7.45322e-07
2.19944e-08
7.26096e-07
1.92265e-08
7.03906e-07
2.21902e-08
6.83087e-07
2.08187e-08
6.59468e-07
2.3619e-08
6.34239e-07
2.5229e-08
6.09291e-07
2.49484e-08
5.80413e-07
2.88777e-08
5.561e-07
2.43132e-08
5.2427e-07
3.18296e-08
4.99453e-07
2.48171e-08
4.61109e-07
3.83436e-08
4.24509e-07
3.66005e-08
3.75468e-07
4.90407e-08
3.13257e-07
6.22112e-08
8.74042e-08
2.25853e-07
1.00298e-06
4.53041e-09
1.0065e-06
9.65445e-09
1.00874e-06
1.33194e-08
1.01047e-06
1.32901e-08
1.01099e-06
1.65278e-08
1.01208e-06
1.49762e-08
1.0112e-06
1.92603e-08
1.01152e-06
1.65996e-08
1.00956e-06
2.10782e-08
1.00858e-06
1.87073e-08
1.0056e-06
2.2496e-08
1.00281e-06
2.06778e-08
9.9896e-07
2.37337e-08
9.96051e-07
2.17806e-08
9.89344e-07
2.87019e-08
9.86524e-07
2.20462e-08
9.75479e-07
3.32357e-08
9.72015e-07
2.42823e-08
9.6013e-07
3.55039e-08
9.53282e-07
3.20774e-08
9.40468e-07
3.77621e-08
9.29976e-07
3.937e-08
9.09503e-07
4.47857e-08
8.99168e-07
4.21647e-08
8.67439e-07
5.65458e-08
8.52746e-07
5.30365e-08
8.14643e-07
7.47037e-08
7.82929e-07
8.07546e-08
7.28285e-07
1.16855e-07
1.21846e-07
6.93843e-07
1.00179e-06
2.74382e-09
1.00487e-06
6.56614e-09
1.00769e-06
1.0508e-08
1.00999e-06
1.09887e-08
1.01181e-06
1.47081e-08
1.01403e-06
1.27502e-08
1.0152e-06
1.80917e-08
1.01765e-06
1.41549e-08
1.0179e-06
2.08285e-08
1.02037e-06
1.62371e-08
1.01999e-06
2.28772e-08
1.02143e-06
1.92363e-08
1.02073e-06
2.44293e-08
1.021e-06
2.15157e-08
1.02075e-06
2.89491e-08
1.01955e-06
2.32489e-08
1.01843e-06
3.43516e-08
1.0156e-06
2.71164e-08
1.01353e-06
3.75651e-08
1.0084e-06
3.7215e-08
1.00587e-06
4.02935e-08
9.98628e-07
4.66082e-08
9.90795e-07
5.2618e-08
9.84592e-07
4.83687e-08
9.6422e-07
7.69172e-08
9.57648e-07
5.96091e-08
9.33068e-07
9.92831e-08
9.12942e-07
1.00881e-07
8.9188e-07
1.37918e-07
1.42032e-07
8.71694e-07
1.00081e-06
1.93468e-09
1.00256e-06
4.81471e-09
1.00461e-06
8.4588e-09
1.00645e-06
9.1461e-09
1.00839e-06
1.27695e-08
1.00995e-06
1.11916e-08
1.01178e-06
1.62622e-08
1.01317e-06
1.27615e-08
1.01481e-06
1.91931e-08
1.01628e-06
1.47655e-08
1.01738e-06
2.1773e-08
1.0187e-06
1.79242e-08
1.01878e-06
2.43478e-08
1.02003e-06
2.02608e-08
1.02002e-06
2.89652e-08
1.02055e-06
2.2711e-08
1.01979e-06
3.51177e-08
1.01924e-06
2.7662e-08
1.01682e-06
3.99851e-08
1.01699e-06
3.70433e-08
1.01151e-06
4.57741e-08
1.01248e-06
4.56375e-08
1.00436e-06
6.07428e-08
1.00011e-06
5.26191e-08
9.93002e-07
8.40247e-08
9.8049e-07
7.21203e-08
9.72098e-07
1.07675e-07
9.61933e-07
1.11046e-07
9.49026e-07
1.50825e-07
1.5618e-07
9.34877e-07
1.00044e-06
1.49605e-09
1.00152e-06
3.73475e-09
1.00323e-06
6.7491e-09
1.00473e-06
7.6458e-09
1.00669e-06
1.08112e-08
1.00793e-06
9.95081e-09
1.01002e-06
1.41653e-08
1.01089e-06
1.19e-08
1.01318e-06
1.68982e-08
1.01365e-06
1.42972e-08
1.01612e-06
1.93036e-08
1.01607e-06
1.79779e-08
1.01825e-06
2.21633e-08
1.01774e-06
2.07691e-08
1.01949e-06
2.72212e-08
1.01917e-06
2.30289e-08
1.01959e-06
3.46945e-08
1.01948e-06
2.77769e-08
1.01811e-06
4.13477e-08
1.01798e-06
3.71755e-08
1.01534e-06
4.84108e-08
1.01428e-06
4.66987e-08
1.01043e-06
6.45947e-08
1.00725e-06
5.5796e-08
1.00253e-06
8.87464e-08
9.96534e-07
7.81188e-08
9.91697e-07
1.12512e-07
9.85474e-07
1.17269e-07
9.83852e-07
1.52447e-07
1.59556e-07
9.80475e-07
1.00037e-06
1.12542e-09
1.00111e-06
2.99531e-09
1.00248e-06
5.38235e-09
1.00368e-06
6.44414e-09
1.00551e-06
8.98238e-09
1.00664e-06
8.82034e-09
1.00868e-06
1.21244e-08
1.00962e-06
1.09561e-08
1.01169e-06
1.48325e-08
1.01261e-06
1.33781e-08
1.0145e-06
1.74118e-08
1.01545e-06
1.70245e-08
1.01691e-06
2.07014e-08
1.01748e-06
2.02074e-08
1.01907e-06
2.56237e-08
1.01877e-06
2.33283e-08
1.02045e-06
3.30173e-08
1.01969e-06
2.85394e-08
1.02008e-06
4.09541e-08
1.01979e-06
3.74638e-08
1.01868e-06
4.95291e-08
1.01746e-06
4.79159e-08
1.01716e-06
6.48948e-08
1.01286e-06
6.00909e-08
1.0137e-06
8.79057e-08
1.00903e-06
8.27894e-08
1.00854e-06
1.1301e-07
1.00695e-06
1.18853e-07
1.0092e-06
1.50196e-07
1.59513e-07
1.00925e-06
1.00028e-06
8.42616e-10
1.00082e-06
2.45786e-09
1.00197e-06
4.23522e-09
1.00297e-06
5.43759e-09
1.00471e-06
7.2415e-09
1.00575e-06
7.79012e-09
1.0079e-06
9.97232e-09
1.00868e-06
1.01719e-08
1.01114e-06
1.23777e-08
1.01168e-06
1.28368e-08
1.01422e-06
1.48679e-08
1.01479e-06
1.64511e-08
1.01697e-06
1.85254e-08
1.01758e-06
1.95964e-08
1.01922e-06
2.39865e-08
1.01992e-06
2.26255e-08
1.02124e-06
3.16949e-08
1.02162e-06
2.8163e-08
1.02255e-06
4.00231e-08
1.02261e-06
3.74053e-08
1.02296e-06
4.91748e-08
1.02254e-06
4.83418e-08
1.02305e-06
6.43834e-08
1.02157e-06
6.15756e-08
1.0234e-06
8.60738e-08
1.02175e-06
8.44342e-08
1.0242e-06
1.10566e-07
1.02587e-06
1.1718e-07
1.03082e-06
1.45246e-07
1.54153e-07
1.03618e-06
1.00024e-06
6.04238e-10
1.0007e-06
1.99472e-09
1.00171e-06
3.22369e-09
1.00268e-06
4.47061e-09
1.00426e-06
5.65996e-09
1.00542e-06
6.63369e-09
1.00738e-06
8.01224e-09
1.00852e-06
9.02877e-09
1.01066e-06
1.02439e-08
1.0118e-06
1.16883e-08
1.01395e-06
1.27171e-08
1.0152e-06
1.52063e-08
1.01725e-06
1.64732e-08
1.01827e-06
1.85824e-08
1.02046e-06
2.17912e-08
1.02098e-06
2.21084e-08
1.02345e-06
2.92195e-08
1.02374e-06
2.78764e-08
1.02581e-06
3.79506e-08
1.02622e-06
3.69994e-08
1.02797e-06
4.74213e-08
1.02792e-06
4.83965e-08
1.03065e-06
6.16548e-08
1.02988e-06
6.23458e-08
1.03388e-06
8.20683e-08
1.03439e-06
8.39296e-08
1.03917e-06
1.05777e-07
1.04266e-06
1.13695e-07
1.05081e-06
1.37097e-07
1.47677e-07
1.05728e-06
1.00021e-06
3.90957e-10
1.00066e-06
1.55008e-09
1.00159e-06
2.29431e-09
1.00254e-06
3.51689e-09
1.00407e-06
4.13313e-09
1.00528e-06
5.4219e-09
1.00725e-06
6.04663e-09
1.00851e-06
7.76708e-09
1.01072e-06
8.03538e-09
1.01204e-06
1.03617e-08
1.01427e-06
1.04901e-08
1.01588e-06
1.35984e-08
1.0179e-06
1.44473e-08
1.01963e-06
1.68578e-08
1.02163e-06
1.97923e-08
1.02313e-06
2.06029e-08
1.02557e-06
2.67844e-08
1.02664e-06
2.68025e-08
1.02938e-06
3.52132e-08
1.03035e-06
3.60245e-08
1.03302e-06
4.47521e-08
1.03422e-06
4.71991e-08
1.03746e-06
5.84169e-08
1.03877e-06
6.10359e-08
1.04363e-06
7.72073e-08
1.04618e-06
8.13794e-08
1.05247e-06
9.94852e-08
1.05826e-06
1.07911e-07
1.06766e-06
1.27696e-07
1.38254e-07
1.07708e-06
1.0002e-06
1.95264e-10
1.00066e-06
1.08405e-09
1.00155e-06
1.40612e-09
1.00257e-06
2.49672e-09
1.00403e-06
2.66839e-09
1.00541e-06
4.04327e-09
1.0073e-06
4.15771e-09
1.00886e-06
6.2107e-09
1.01097e-06
5.92268e-09
1.01268e-06
8.6542e-09
1.0149e-06
8.27067e-09
1.01683e-06
1.16676e-08
1.01913e-06
1.21502e-08
1.02102e-06
1.49616e-08
1.02358e-06
1.72315e-08
1.02525e-06
1.89395e-08
1.02828e-06
2.37469e-08
1.02989e-06
2.52002e-08
1.03318e-06
3.19221e-08
1.03492e-06
3.42822e-08
1.03842e-06
4.12533e-08
1.04039e-06
4.52279e-08
1.04471e-06
5.40945e-08
1.04726e-06
5.84883e-08
1.05305e-06
7.14143e-08
1.05731e-06
7.71254e-08
1.06493e-06
9.18639e-08
1.07193e-06
1.00906e-07
1.0827e-06
1.16932e-07
1.27764e-07
1.09319e-06
1.00019e-06
3.96889e-12
1.0007e-06
5.73293e-10
1.0016e-06
5.08396e-10
1.00271e-06
1.38508e-09
1.00419e-06
1.18872e-09
1.00572e-06
2.51323e-09
1.00763e-06
2.25041e-09
1.00942e-06
4.42167e-09
1.01154e-06
3.79549e-09
1.01357e-06
6.62865e-09
1.01581e-06
6.02854e-09
1.01816e-06
9.31596e-09
1.02051e-06
9.80078e-09
1.02295e-06
1.25295e-08
1.0256e-06
1.45769e-08
1.02789e-06
1.66518e-08
1.03116e-06
2.04713e-08
1.03344e-06
2.29283e-08
1.03715e-06
2.82047e-08
1.03975e-06
3.16885e-08
1.04365e-06
3.73504e-08
1.04686e-06
4.20133e-08
1.05153e-06
4.94332e-08
1.0555e-06
5.4511e-08
1.06191e-06
6.50041e-08
1.06754e-06
7.15021e-08
1.07584e-06
8.35558e-08
1.08427e-06
9.24765e-08
1.09556e-06
1.05642e-07
1.15899e-07
1.10743e-06
1.00019e-06
-1.87679e-10
1.00078e-06
-1.40868e-11
1.00172e-06
-4.29154e-10
1.00296e-06
1.40788e-10
1.00449e-06
-3.44618e-10
1.0062e-06
8.06831e-10
1.00816e-06
2.9243e-10
1.01018e-06
2.4035e-09
1.01237e-06
1.59861e-09
1.01465e-06
4.3497e-09
1.01706e-06
3.62466e-09
1.01964e-06
6.72786e-09
1.02231e-06
7.13553e-09
1.02496e-06
9.8787e-09
1.02799e-06
1.15441e-08
1.03068e-06
1.39672e-08
1.03426e-06
1.68865e-08
1.03721e-06
1.99814e-08
1.04126e-06
2.41558e-08
1.04463e-06
2.83214e-08
1.04906e-06
3.29175e-08
1.05307e-06
3.80009e-08
1.05835e-06
4.41532e-08
1.06334e-06
4.95176e-08
1.07026e-06
5.80882e-08
1.07692e-06
6.48461e-08
1.08588e-06
7.45891e-08
1.09512e-06
8.32392e-08
1.10684e-06
9.39244e-08
1.03496e-07
1.11924e-06
1.00022e-06
-4.10374e-10
1.0009e-06
-6.94256e-10
1.00196e-06
-1.48982e-09
1.00338e-06
-1.27258e-09
1.00504e-06
-2.00576e-09
1.00694e-06
-1.09619e-09
1.00898e-06
-1.74872e-09
1.01123e-06
1.58184e-10
1.01349e-06
-6.67464e-10
1.01606e-06
1.78452e-09
1.01857e-06
1.11523e-09
1.02149e-06
3.80777e-09
1.02433e-06
4.29617e-09
1.02734e-06
6.86276e-09
1.03059e-06
8.29367e-09
1.03375e-06
1.08078e-08
1.0376e-06
1.30439e-08
1.04114e-06
1.64346e-08
1.04548e-06
1.98164e-08
1.04963e-06
2.41688e-08
1.0544e-06
2.81507e-08
1.05928e-06
3.31255e-08
1.06497e-06
3.84639e-08
1.07077e-06
4.37137e-08
1.07808e-06
5.07807e-08
1.08553e-06
5.7393e-08
1.09474e-06
6.53801e-08
1.10466e-06
7.33152e-08
1.11647e-06
8.21149e-08
9.05583e-08
1.12941e-06
1.00025e-06
-6.5623e-10
1.00105e-06
-1.49803e-09
1.00225e-06
-2.69122e-09
1.00388e-06
-2.90372e-09
1.00569e-06
-3.8127e-09
1.0078e-06
-3.20319e-09
1.00995e-06
-3.90512e-09
1.01245e-06
-2.33745e-09
1.01486e-06
-3.08276e-09
1.01765e-06
-1.0013e-09
1.0204e-06
-1.63969e-09
1.02355e-06
6.60642e-10
1.02667e-06
1.17333e-09
1.02994e-06
3.59545e-09
1.03349e-06
4.74756e-09
1.03707e-06
7.22138e-09
1.04119e-06
8.93199e-09
1.04527e-06
1.23534e-08
1.04994e-06
1.51447e-08
1.05468e-06
1.94295e-08
1.05991e-06
2.29217e-08
1.06536e-06
2.7675e-08
1.07151e-06
3.2311e-08
1.07791e-06
3.73123e-08
1.08553e-06
4.31583e-08
1.09351e-06
4.94163e-08
1.10295e-06
5.59455e-08
1.1132e-06
6.30616e-08
1.12503e-06
7.0285e-08
7.76804e-08
1.13791e-06
1.00037e-06
-1.02322e-09
1.00142e-06
-2.54954e-09
1.00291e-06
-4.18584e-09
1.00482e-06
-4.81121e-09
1.00686e-06
-5.85006e-09
1.00917e-06
-5.51024e-09
1.0115e-06
-6.24354e-09
1.01416e-06
-4.99708e-09
1.01677e-06
-5.68728e-09
1.01975e-06
-3.98627e-09
1.02272e-06
-4.61157e-09
1.02607e-06
-2.68576e-09
1.02937e-06
-2.12895e-09
1.03292e-06
5.27106e-11
1.03671e-06
9.53081e-10
1.04071e-06
3.21883e-09
1.04503e-06
4.61678e-09
1.04954e-06
7.83741e-09
1.05449e-06
1.01987e-08
1.05981e-06
1.41075e-08
1.06546e-06
1.72743e-08
1.0715e-06
2.1632e-08
1.07806e-06
2.5756e-08
1.08491e-06
3.04577e-08
1.09267e-06
3.54029e-08
1.10092e-06
4.11605e-08
1.11026e-06
4.66064e-08
1.12056e-06
5.27594e-08
1.13215e-06
5.86948e-08
6.47834e-08
1.14505e-06
1.00045e-06
-1.47121e-09
1.00186e-06
-3.95857e-09
1.00376e-06
-6.09342e-09
1.00603e-06
-7.0812e-09
1.00832e-06
-8.13358e-09
1.01085e-06
-8.04247e-09
1.01335e-06
-8.7458e-09
1.01624e-06
-7.8822e-09
1.01904e-06
-8.48667e-09
1.02229e-06
-7.23916e-09
1.02549e-06
-7.81007e-09
1.02903e-06
-6.23133e-09
1.03252e-06
-5.61897e-09
1.03638e-06
-3.80147e-09
1.04048e-06
-3.14632e-09
1.04486e-06
-1.16095e-09
1.04948e-06
-8.37794e-12
1.05434e-06
2.9761e-09
1.05959e-06
4.95336e-09
1.06529e-06
8.40338e-09
1.07135e-06
1.12209e-08
1.07785e-06
1.51247e-08
1.08483e-06
1.87796e-08
1.0921e-06
2.31876e-08
1.1e-06
2.74997e-08
1.10838e-06
3.27877e-08
1.1176e-06
3.73871e-08
1.12773e-06
4.26255e-08
1.13899e-06
4.74362e-08
5.24948e-08
1.15128e-06
1.00087e-06
-2.34449e-09
1.0029e-06
-5.98836e-09
1.00528e-06
-8.47121e-09
1.00786e-06
-9.65995e-09
1.01037e-06
-1.06457e-08
1.01312e-06
-1.0791e-08
1.01582e-06
-1.14406e-08
1.01891e-06
-1.09784e-08
1.02197e-06
-1.15468e-08
1.02547e-06
-1.07396e-08
1.02889e-06
-1.12315e-08
1.03253e-06
-9.86523e-09
1.03617e-06
-9.26389e-09
1.0403e-06
-7.93283e-09
1.04475e-06
-7.5973e-09
1.04945e-06
-5.86017e-09
1.0541e-06
-4.65457e-09
1.05916e-06
-2.08221e-09
1.06459e-06
-4.8183e-10
1.07075e-06
2.24778e-09
1.07737e-06
4.59782e-09
1.08455e-06
7.94336e-09
1.09201e-06
1.1327e-08
1.09958e-06
1.56183e-08
1.10734e-06
1.97355e-08
1.11541e-06
2.47135e-08
1.12405e-06
2.87464e-08
1.13357e-06
3.31138e-08
1.14416e-06
3.68449e-08
4.04737e-08
1.15618e-06
1.00184e-06
-4.18789e-09
1.00527e-06
-9.41515e-09
1.00851e-06
-1.17068e-08
1.01144e-06
-1.25973e-08
1.0142e-06
-1.34048e-08
1.01723e-06
-1.38162e-08
1.02015e-06
-1.43658e-08
1.02343e-06
-1.42515e-08
1.02652e-06
-1.46443e-08
1.03003e-06
-1.42509e-08
1.03333e-06
-1.45223e-08
1.0368e-06
-1.334e-08
1.0402e-06
-1.26659e-08
1.04424e-06
-1.19716e-08
1.04851e-06
-1.18632e-08
1.05314e-06
-1.04889e-08
1.05766e-06
-9.17581e-09
1.06259e-06
-7.01767e-09
1.06786e-06
-5.74814e-09
1.07381e-06
-3.70516e-09
1.0804e-06
-1.98644e-09
1.08779e-06
5.46959e-10
1.09553e-06
3.59216e-09
1.10347e-06
7.67555e-09
1.11148e-06
1.17294e-08
1.11974e-06
1.64492e-08
1.12842e-06
2.0066e-08
1.13781e-06
2.37262e-08
1.14811e-06
2.65423e-08
2.91476e-08
1.15944e-06
1.00304e-06
-7.22887e-09
1.00685e-06
-1.32227e-08
1.00971e-06
-1.45634e-08
1.01185e-06
-1.47409e-08
1.01371e-06
-1.52693e-08
1.01545e-06
-1.55544e-08
1.01684e-06
-1.57527e-08
1.01826e-06
-1.56692e-08
1.01929e-06
-1.56787e-08
1.02039e-06
-1.53469e-08
1.02093e-06
-1.50678e-08
1.02166e-06
-1.40701e-08
1.02255e-06
-1.35549e-08
1.02402e-06
-1.34415e-08
1.02533e-06
-1.317e-08
1.02668e-06
-1.18451e-08
1.02799e-06
-1.04791e-08
1.03018e-06
-9.21445e-09
1.03306e-06
-8.6272e-09
1.03699e-06
-7.63262e-09
1.04162e-06
-6.61076e-09
1.04692e-06
-4.75637e-09
1.0528e-06
-2.28599e-09
1.05953e-06
9.42715e-10
1.06718e-06
4.07501e-09
1.07628e-06
7.34909e-09
1.08657e-06
9.77967e-09
1.09828e-06
1.20145e-08
1.11133e-06
1.34929e-08
1.46599e-08
1.12582e-06
9.92771e-07
9.79548e-07
9.64985e-07
9.50244e-07
9.34975e-07
9.1942e-07
9.03668e-07
8.87999e-07
8.7232e-07
8.56973e-07
8.41905e-07
8.27835e-07
8.1428e-07
8.00839e-07
7.87669e-07
7.75823e-07
7.65344e-07
7.5613e-07
7.47503e-07
7.3987e-07
7.33259e-07
7.28503e-07
7.26217e-07
7.2716e-07
7.31235e-07
7.38584e-07
7.48363e-07
7.60378e-07
7.73871e-07
7.88531e-07
3.32821e-07
-1.06968e-07
4.43724e-07
-1.10904e-07
5.11233e-07
-6.75084e-08
5.65039e-07
-5.38067e-08
6.09358e-07
-4.43187e-08
6.40503e-07
-3.11455e-08
6.99346e-07
-5.88426e-08
7.36036e-07
-3.66903e-08
7.95463e-07
-5.94266e-08
-1.17263e-07
9.12726e-07
7.34734e-07
-1.47858e-07
7.76044e-07
-1.52213e-07
8.2176e-07
-1.13225e-07
8.49429e-07
-8.14749e-08
8.74581e-07
-6.94709e-08
9.00559e-07
-5.71233e-08
9.45582e-07
-1.03866e-07
9.87267e-07
-7.83754e-08
1.02064e-06
-9.27979e-08
-1.43124e-07
1.0465e-06
8.78192e-07
-1.54356e-07
8.83957e-07
-1.57978e-07
8.99674e-07
-1.28942e-07
9.17034e-07
-9.8835e-08
9.24764e-07
-7.72005e-08
9.58251e-07
-9.06106e-08
9.56189e-07
-1.01804e-07
1.01155e-06
-1.33741e-07
1.05568e-06
-1.36921e-07
-1.74199e-07
1.08675e-06
9.44621e-07
-1.641e-07
9.39769e-07
-1.53126e-07
9.36941e-07
-1.26115e-07
9.52704e-07
-1.14598e-07
9.76437e-07
-1.00934e-07
1.00077e-06
-1.14945e-07
1.00461e-06
-1.05643e-07
1.01159e-06
-1.40717e-07
1.04144e-06
-1.66772e-07
-1.8675e-07
1.05399e-06
9.72998e-07
-1.56622e-07
9.76092e-07
-1.56221e-07
9.781e-07
-1.28123e-07
9.88243e-07
-1.2474e-07
9.93429e-07
-1.0612e-07
1.00465e-06
-1.26167e-07
1.01249e-06
-1.13487e-07
1.03419e-06
-1.62417e-07
1.04281e-06
-1.75385e-07
-1.90644e-07
1.0467e-06
1.00739e-06
-1.54766e-07
1.00194e-06
-1.5077e-07
1.002e-06
-1.28186e-07
1.00766e-06
-1.30395e-07
1.01651e-06
-1.1497e-07
1.02495e-06
-1.34609e-07
1.03757e-06
-1.26104e-07
1.0387e-06
-1.63547e-07
1.03712e-06
-1.73802e-07
-2.01556e-07
1.04803e-06
1.03003e-06
-1.48615e-07
1.02651e-06
-1.47252e-07
1.02607e-06
-1.27751e-07
1.02831e-06
-1.3263e-07
1.03161e-06
-1.18266e-07
1.03467e-06
-1.37677e-07
1.03904e-06
-1.30466e-07
1.04084e-06
-1.65352e-07
1.04332e-06
-1.76277e-07
-2.07275e-07
1.04903e-06
1.05208e-06
-1.43412e-07
1.04636e-06
-1.41534e-07
1.04424e-06
-1.25632e-07
1.04293e-06
-1.31312e-07
1.04533e-06
-1.20674e-07
1.04543e-06
-1.37778e-07
1.04889e-06
-1.33925e-07
1.04582e-06
-1.62282e-07
1.04334e-06
-1.73788e-07
-2.04589e-07
1.04065e-06
1.06983e-06
-1.3616e-07
1.06317e-06
-1.34878e-07
1.05968e-06
-1.22139e-07
1.05643e-06
-1.28067e-07
1.05516e-06
-1.19398e-07
1.05181e-06
-1.34433e-07
1.05122e-06
-1.33331e-07
1.04713e-06
-1.58196e-07
1.04167e-06
-1.68329e-07
-1.97631e-07
1.03471e-06
1.08531e-06
-1.28282e-07
1.0774e-06
-1.26973e-07
1.07218e-06
-1.16911e-07
1.0663e-06
-1.22195e-07
1.06343e-06
-1.1652e-07
1.0581e-06
-1.29108e-07
1.05441e-06
-1.29638e-07
1.04663e-06
-1.50419e-07
1.03979e-06
-1.61482e-07
-1.88217e-07
1.03037e-06
1.09814e-06
-1.18996e-07
1.08917e-06
-1.18003e-07
1.0824e-06
-1.10137e-07
1.07502e-06
-1.14817e-07
1.06919e-06
-1.10693e-07
1.06158e-06
-1.21498e-07
1.05569e-06
-1.23746e-07
1.04687e-06
-1.41596e-07
1.03661e-06
-1.5123e-07
-1.75119e-07
1.02352e-06
1.1091e-06
-1.08855e-07
1.09897e-06
-1.0787e-07
1.09057e-06
-1.01741e-07
1.08143e-06
-1.05677e-07
1.07411e-06
-1.03368e-07
1.06489e-06
-1.12282e-07
1.0562e-06
-1.15055e-07
1.045e-06
-1.30394e-07
1.03359e-06
-1.3982e-07
-1.60641e-07
1.01911e-06
1.11808e-06
-9.75285e-08
1.10695e-06
-9.67393e-08
1.0972e-06
-9.19846e-08
1.08677e-06
-9.52493e-08
1.07726e-06
-9.38571e-08
1.0665e-06
-1.0152e-07
1.05625e-06
-1.04808e-07
1.04374e-06
-1.17888e-07
1.03013e-06
-1.26206e-07
-1.44254e-07
1.01374e-06
1.12572e-06
-8.53463e-08
1.11355e-06
-8.45617e-08
1.10245e-06
-8.08844e-08
1.09074e-06
-8.35402e-08
1.07987e-06
-8.29918e-08
1.06778e-06
-8.94251e-08
1.05572e-06
-9.27543e-08
1.04171e-06
-1.03871e-07
1.02698e-06
-1.11476e-07
-1.26773e-07
1.00949e-06
1.13184e-06
-7.21342e-08
1.11871e-06
-7.14347e-08
1.10648e-06
-6.86559e-08
1.09373e-06
-7.07837e-08
1.08144e-06
-7.07088e-08
1.0682e-06
-7.61772e-08
1.05493e-06
-7.94889e-08
1.03986e-06
-8.8795e-08
1.02384e-06
-9.54599e-08
-1.08258e-07
1.00532e-06
1.13719e-06
-5.80436e-08
1.12308e-06
-5.73253e-08
1.10978e-06
-5.53567e-08
1.09602e-06
-5.7025e-08
1.08269e-06
-5.73763e-08
1.06841e-06
-6.19043e-08
1.05401e-06
-6.50803e-08
1.03792e-06
-7.271e-08
1.02103e-06
-7.85696e-08
-8.89651e-08
1.00174e-06
1.14097e-06
-4.28349e-08
1.12591e-06
-4.22665e-08
1.11171e-06
-4.11552e-08
1.0971e-06
-4.2419e-08
1.08288e-06
-4.31566e-08
1.06774e-06
-4.67564e-08
1.05244e-06
-4.97814e-08
1.03549e-06
-5.57665e-08
1.01776e-06
-6.08377e-08
-6.88811e-08
9.97678e-07
1.14286e-06
-2.62547e-08
1.12648e-06
-2.58889e-08
1.11102e-06
-2.56979e-08
1.09526e-06
-2.66562e-08
1.07992e-06
-2.78185e-08
1.06359e-06
-3.04295e-08
1.04704e-06
-3.32295e-08
1.02876e-06
-3.74831e-08
1.00963e-06
-4.17077e-08
-4.72824e-08
9.8803e-07
1.10837e-06
-8.80221e-09
1.09147e-06
-8.99424e-09
1.07511e-06
-9.33683e-09
1.05849e-06
-1.00343e-08
1.04179e-06
-1.1124e-08
1.02402e-06
-1.26578e-08
1.00542e-06
-1.46225e-08
9.84896e-07
-1.69641e-08
9.62851e-07
-1.96625e-08
-2.24984e-08
9.38067e-07
7.79729e-07
7.70734e-07
7.61397e-07
7.51363e-07
7.40239e-07
7.27581e-07
7.12959e-07
6.95995e-07
6.76332e-07
6.53834e-07
5.23337e-08
-5.23337e-08
2.96819e-08
2.26518e-08
-5.29282e-08
8.26101e-08
-2.62567e-07
2.09639e-07
-5.24336e-07
2.61768e-07
-7.50017e-07
2.25681e-07
-9.23046e-07
1.73029e-07
-9.91342e-07
6.82957e-08
-9.74974e-07
-1.6368e-08
-8.90077e-07
-8.48968e-08
-7.66702e-07
-1.23375e-07
-6.09634e-07
-1.57068e-07
-4.36635e-07
-1.72998e-07
-2.60879e-07
-1.75757e-07
-9.24808e-08
-1.68398e-07
5.29765e-08
-1.45457e-07
1.76115e-07
-1.23138e-07
2.73692e-07
-9.7577e-08
3.47154e-07
-7.34624e-08
3.98934e-07
-5.17802e-08
4.3186e-07
-3.29252e-08
4.49015e-07
-1.71552e-08
4.53932e-07
-4.91682e-09
4.50288e-07
3.64408e-09
4.41292e-07
8.99587e-09
4.29447e-07
1.18442e-08
4.16666e-07
1.27811e-08
4.04197e-07
1.24693e-08
3.92776e-07
1.14209e-08
3.82812e-07
9.96459e-09
3.74359e-07
8.45296e-09
3.67406e-07
6.95253e-09
3.61721e-07
5.68479e-09
3.57203e-07
4.51834e-09
3.53534e-07
3.66856e-09
3.50696e-07
2.83806e-09
3.48356e-07
2.34013e-09
3.46623e-07
1.73268e-09
3.45116e-07
1.50775e-09
1.03641e-09
5.53587e-08
-1.07692e-07
1.34757e-08
6.45349e-08
-1.97472e-07
2.93557e-07
-4.61539e-07
4.73707e-07
-6.62468e-07
4.62697e-07
-8.24608e-07
3.87821e-07
-9.29962e-07
2.78384e-07
-9.5696e-07
9.52931e-08
-9.11529e-07
-6.17983e-08
-8.11546e-07
-1.8488e-07
-6.79732e-07
-2.55189e-07
-5.22238e-07
-3.14562e-07
-3.48571e-07
-3.46666e-07
-1.7285e-07
-3.51478e-07
-7.62561e-09
-3.33622e-07
1.41411e-07
-2.94493e-07
2.68429e-07
-2.50156e-07
3.73176e-07
-2.02325e-07
4.57078e-07
-1.57364e-07
5.22464e-07
-1.17166e-07
5.71225e-07
-8.16864e-08
6.05448e-07
-5.13784e-08
6.28271e-07
-2.77393e-08
6.43145e-07
-1.12305e-08
6.53073e-07
-9.31661e-10
6.59843e-07
5.07416e-09
6.64598e-07
8.02531e-09
6.67808e-07
9.25992e-09
6.69743e-07
9.48607e-09
6.70652e-07
9.05489e-09
6.70679e-07
8.42646e-09
6.70092e-07
7.53899e-09
6.6901e-07
6.76759e-09
6.67726e-07
5.80177e-09
6.66268e-07
5.127e-09
6.64914e-07
4.19164e-09
6.63564e-07
3.69022e-09
6.62479e-07
2.81726e-09
6.61443e-07
2.54472e-09
1.76772e-09
-6.67724e-08
-4.09201e-08
-2.05748e-07
2.0351e-07
-3.4787e-07
4.3568e-07
-4.61159e-07
5.86995e-07
-5.6314e-07
5.64678e-07
-6.56388e-07
4.81069e-07
-7.11841e-07
3.33837e-07
-7.09791e-07
9.32439e-08
-6.51195e-07
-1.20394e-07
-5.58979e-07
-2.77097e-07
-4.40984e-07
-3.73184e-07
-3.08836e-07
-4.4671e-07
-1.64025e-07
-4.91477e-07
-1.40893e-08
-5.01414e-07
1.2278e-07
-4.70491e-07
2.43816e-07
-4.1553e-07
3.47599e-07
-3.53939e-07
4.33642e-07
-2.88368e-07
5.02465e-07
-2.26186e-07
5.58863e-07
-1.73565e-07
6.05683e-07
-1.28506e-07
6.41742e-07
-8.74379e-08
6.66267e-07
-5.22644e-08
6.81391e-07
-2.63539e-08
6.91066e-07
-1.06068e-08
6.98737e-07
-2.59659e-09
7.05929e-07
8.33451e-10
7.13032e-07
2.15636e-09
7.19757e-07
2.76165e-09
7.25731e-07
3.08044e-09
7.30683e-07
3.47426e-09
7.34549e-07
3.67296e-09
7.3734e-07
3.97703e-09
7.39244e-07
3.89729e-09
7.40398e-07
3.97354e-09
7.41067e-07
3.52238e-09
7.41352e-07
3.4052e-09
7.41477e-07
2.69215e-09
7.41458e-07
2.56446e-09
1.75304e-09
-4.83444e-08
7.4243e-09
-1.27628e-07
2.82794e-07
-1.92004e-07
5.00056e-07
-2.84482e-07
6.79474e-07
-3.46343e-07
6.26539e-07
-3.97847e-07
5.32572e-07
-4.14001e-07
3.49991e-07
-4.00724e-07
7.99668e-08
-3.49116e-07
-1.72003e-07
-2.75609e-07
-3.50603e-07
-1.87338e-07
-4.61454e-07
-7.73833e-08
-5.56665e-07
4.57171e-08
-6.14577e-07
1.68109e-07
-6.23806e-07
2.79992e-07
-5.82374e-07
3.68256e-07
-5.03795e-07
4.413e-07
-4.26983e-07
5.05269e-07
-3.52337e-07
5.5331e-07
-2.74227e-07
5.87144e-07
-2.07399e-07
6.18173e-07
-1.59534e-07
6.511e-07
-1.20365e-07
6.81353e-07
-8.25179e-08
7.03286e-07
-4.82866e-08
7.15969e-07
-2.32895e-08
7.22262e-07
-8.89e-09
7.25816e-07
-2.72095e-09
7.29021e-07
-1.04829e-09
7.32774e-07
-9.91246e-10
7.36936e-07
-1.08174e-09
7.41057e-07
-6.46274e-10
7.44713e-07
1.65468e-11
7.47725e-07
9.6508e-10
7.50031e-07
1.59166e-09
7.51699e-07
2.30551e-09
7.52873e-07
2.34813e-09
7.53656e-07
2.62192e-09
7.54211e-07
2.13693e-09
7.54608e-07
2.16813e-09
1.39089e-09
-4.95067e-08
5.6931e-08
-1.33957e-07
3.67244e-07
-1.33452e-07
4.99551e-07
-1.11254e-07
6.57276e-07
-9.93547e-08
6.1464e-07
-9.7641e-08
5.30858e-07
-8.0082e-08
3.32432e-07
-5.37218e-08
5.36066e-08
-2.49528e-08
-2.00772e-07
4.64051e-09
-3.80197e-07
5.03491e-08
-5.07163e-07
1.22996e-07
-6.29312e-07
2.20608e-07
-7.1219e-07
3.25228e-07
-7.28426e-07
4.17132e-07
-6.74277e-07
4.8112e-07
-5.67783e-07
5.18977e-07
-4.6484e-07
5.57774e-07
-3.91134e-07
5.97779e-07
-3.14232e-07
6.19716e-07
-2.29336e-07
6.25941e-07
-1.6576e-07
6.34397e-07
-1.28821e-07
6.54052e-07
-1.02173e-07
6.80359e-07
-7.45939e-08
7.04792e-07
-4.77228e-08
7.2223e-07
-2.63281e-08
7.32415e-07
-1.29058e-08
7.37701e-07
-6.33459e-09
7.4073e-07
-4.02019e-09
7.43147e-07
-3.49852e-09
7.45582e-07
-3.08125e-09
7.48012e-07
-2.41356e-09
7.50212e-07
-1.23496e-09
7.52031e-07
-2.26947e-10
7.53421e-07
9.15705e-10
7.54418e-07
1.35103e-09
7.55106e-07
1.93363e-09
7.5562e-07
1.62314e-09
7.55998e-07
1.78967e-09
1.01369e-09
3.39907e-08
2.29403e-08
7.33211e-08
3.27913e-07
1.48316e-07
4.24556e-07
1.66042e-07
6.3955e-07
1.93858e-07
5.86823e-07
2.32607e-07
4.92109e-07
2.72543e-07
2.92496e-07
3.01003e-07
2.51469e-08
3.2315e-07
-2.22919e-07
3.35023e-07
-3.9207e-07
3.471e-07
-5.1924e-07
3.76408e-07
-6.5862e-07
4.36254e-07
-7.72036e-07
4.96773e-07
-7.88945e-07
5.45778e-07
-7.23282e-07
5.84697e-07
-6.06702e-07
5.94788e-07
-4.74931e-07
5.91117e-07
-3.87462e-07
6.0833e-07
-3.31445e-07
6.36435e-07
-2.5744e-07
6.4711e-07
-1.76435e-07
6.40203e-07
-1.21914e-07
6.35255e-07
-9.72246e-08
6.44552e-07
-8.38905e-08
6.66251e-07
-6.94221e-08
6.91906e-07
-5.19837e-08
7.14352e-07
-3.53517e-08
7.3038e-07
-2.2362e-08
7.40236e-07
-1.38763e-08
7.45719e-07
-8.98214e-09
7.48772e-07
-6.13397e-09
7.50665e-07
-4.30666e-09
7.52042e-07
-2.61211e-09
7.53135e-07
-1.31946e-09
7.54029e-07
2.16058e-11
7.54731e-07
6.49357e-10
7.55255e-07
1.40941e-09
7.55696e-07
1.1823e-09
7.56053e-07
1.4323e-09
6.14893e-10
-1.63885e-07
1.86825e-07
4.73933e-08
1.16635e-07
2.26923e-07
2.45027e-07
4.18497e-07
4.47976e-07
5.30231e-07
4.75089e-07
6.05262e-07
4.17078e-07
6.4756e-07
2.50198e-07
6.65889e-07
6.81826e-09
6.70084e-07
-2.27115e-07
6.59522e-07
-3.81507e-07
6.53427e-07
-5.13145e-07
6.64088e-07
-6.6928e-07
6.82328e-07
-7.90276e-07
6.92897e-07
-7.99515e-07
6.81589e-07
-7.11974e-07
6.75231e-07
-6.00344e-07
6.75828e-07
-4.75528e-07
6.54108e-07
-3.65742e-07
6.28174e-07
-3.05512e-07
6.29412e-07
-2.58679e-07
6.46701e-07
-1.93724e-07
6.54184e-07
-1.29396e-07
6.4825e-07
-9.12915e-08
6.42203e-07
-7.78436e-08
6.46766e-07
-7.3985e-08
6.62668e-07
-6.78857e-08
6.84759e-07
-5.74424e-08
7.07024e-07
-4.46265e-08
7.25438e-07
-3.22912e-08
7.38461e-07
-2.20051e-08
7.46543e-07
-1.42152e-08
7.51006e-07
-8.77053e-09
7.53294e-07
-4.89982e-09
7.54424e-07
-2.4496e-09
7.54947e-07
-5.00593e-10
7.55225e-07
3.71118e-10
7.55401e-07
1.23351e-09
7.55571e-07
1.01201e-09
7.55722e-07
1.28121e-09
3.64311e-10
7.01465e-07
3.98085e-07
5.21716e-07
2.96384e-07
4.49219e-07
3.17525e-07
5.40172e-07
3.57022e-07
6.77807e-07
3.37455e-07
8.09338e-07
2.85547e-07
8.94106e-07
1.6543e-07
9.31978e-07
-3.10542e-08
9.35507e-07
-2.30644e-07
9.2467e-07
-3.7067e-07
9.12636e-07
-5.01111e-07
9.00145e-07
-6.5679e-07
8.79729e-07
-7.69859e-07
8.47165e-07
-7.66951e-07
7.9568e-07
-6.60489e-07
7.4205e-07
-5.46714e-07
7.22619e-07
-4.56096e-07
7.22456e-07
-3.6558e-07
7.0688e-07
-2.89936e-07
6.8664e-07
-2.38439e-07
6.85263e-07
-1.92347e-07
6.99112e-07
-1.43245e-07
7.11827e-07
-1.04006e-07
7.1597e-07
-8.19866e-08
7.14852e-07
-7.28667e-08
7.1509e-07
-6.81237e-08
7.20966e-07
-6.33181e-08
7.32759e-07
-5.64194e-08
7.47889e-07
-4.74212e-08
7.62908e-07
-3.70249e-08
7.75263e-07
-2.65698e-08
7.83883e-07
-1.73908e-08
7.89021e-07
-1.00373e-08
7.91587e-07
-5.01588e-09
7.9271e-07
-1.62324e-09
7.93177e-07
-9.65248e-11
7.93326e-07
1.08491e-09
7.93465e-07
8.7264e-10
7.93596e-07
1.1511e-09
7.74094e-11
1.05625e-06
3.88335e-07
1.00972e-06
3.42919e-07
9.42536e-07
3.84705e-07
9.17021e-07
3.82537e-07
9.46133e-07
3.08343e-07
1.01154e-06
2.20145e-07
1.06981e-06
1.07154e-07
1.10835e-06
-6.95897e-08
1.12552e-06
-2.47816e-07
1.12818e-06
-3.7333e-07
1.12613e-06
-4.9906e-07
1.08804e-06
-6.18706e-07
1.00374e-06
-6.85553e-07
9.07824e-07
-6.71038e-07
8.28044e-07
-5.80709e-07
7.64707e-07
-4.83377e-07
7.2197e-07
-4.13359e-07
7.09531e-07
-3.53141e-07
7.13808e-07
-2.94213e-07
7.15958e-07
-2.40588e-07
7.15632e-07
-1.92021e-07
7.21251e-07
-1.48865e-07
7.35472e-07
-1.18228e-07
7.53965e-07
-1.00479e-07
7.69407e-07
-8.83087e-08
7.76375e-07
-7.50924e-08
7.75013e-07
-6.1956e-08
7.70188e-07
-5.15941e-08
7.67266e-07
-4.44991e-08
7.68589e-07
-3.83476e-08
7.73383e-07
-3.1364e-08
7.7948e-07
-2.34875e-08
7.85015e-07
-1.5573e-08
7.89077e-07
-9.07742e-09
7.91452e-07
-3.99811e-09
7.92493e-07
-1.13755e-09
7.9281e-07
7.67139e-10
7.92857e-07
8.26522e-10
7.92799e-07
1.20832e-09
1.09465e-11
1.08045e-06
3.94637e-07
1.10887e-06
3.14502e-07
1.15523e-06
3.38343e-07
1.1843e-06
3.53468e-07
1.22155e-06
2.71087e-07
1.25819e-06
1.83511e-07
1.28217e-06
8.31656e-08
1.3057e-06
-9.31149e-08
1.31304e-06
-2.55158e-07
1.2912e-06
-3.5149e-07
1.25066e-06
-4.58516e-07
1.18226e-06
-5.50302e-07
1.0638e-06
-5.67096e-07
9.32984e-07
-5.40223e-07
8.45728e-07
-4.93453e-07
8.0536e-07
-4.43008e-07
7.85469e-07
-3.93468e-07
7.66142e-07
-3.33814e-07
7.48967e-07
-2.77038e-07
7.45228e-07
-2.36849e-07
7.54744e-07
-2.01537e-07
7.65053e-07
-1.59174e-07
7.6815e-07
-1.21325e-07
7.68934e-07
-1.01263e-07
7.75878e-07
-9.5253e-08
7.89728e-07
-8.89422e-08
8.03697e-07
-7.59252e-08
8.10833e-07
-5.87302e-08
8.09419e-07
-4.30843e-08
8.02721e-07
-3.16503e-08
7.95473e-07
-2.41159e-08
7.90598e-07
-1.86121e-08
7.88619e-07
-1.35947e-08
7.88552e-07
-9.00984e-09
7.89444e-07
-4.89072e-09
7.90607e-07
-2.30008e-09
7.91593e-07
-2.18702e-10
7.92285e-07
1.34748e-10
7.92721e-07
7.72215e-10
-3.34116e-10
1.08522e-06
3.63407e-07
1.13697e-06
2.62748e-07
1.19618e-06
2.79132e-07
1.24944e-06
3.00217e-07
1.29493e-06
2.25594e-07
1.32717e-06
1.51267e-07
1.35133e-06
5.90061e-08
1.35042e-06
-9.22042e-08
1.3337e-06
-2.38435e-07
1.30393e-06
-3.21726e-07
1.2286e-06
-3.83179e-07
1.13135e-06
-4.5306e-07
1.04255e-06
-4.7829e-07
9.63397e-07
-4.61071e-07
9.05154e-07
-4.3521e-07
8.66732e-07
-4.04586e-07
8.43243e-07
-3.69979e-07
8.29108e-07
-3.19679e-07
8.0926e-07
-2.5719e-07
7.8513e-07
-2.12719e-07
7.76855e-07
-1.93262e-07