/*--------------------------------*- C++ -*----------------------------------*\
| =========                 |                                                 |
| \\      /  F ield         | OpenFOAM: The Open Source CFD Toolbox           |
|  \\    /   O peration     | Version:  2112                                  |
|   \\  /    A nd           | Website:  www.openfoam.com                      |
|    \\/     M anipulation  |                                                 |
\*---------------------------------------------------------------------------*/
FoamFile
{
    version     2.0;
    format      ascii;
    arch        "LSB;label=32;scalar=64";
    class       volScalarField;
    location    "0.5";
    object      nut;
}
// * * * * * * * * * * * * * * * * * * * * * * * * * * * * * * * * * * * * * //

dimensions      [0 2 -1 0 0 0 0];

internalField   nonuniform List<scalar> 
1880
(
3.41222e-11
4.04539e-12
3.75884e-13
1.54739e-14
7.54049e-14
2.34044e-14
4.05226e-14
4.63065e-15
1.18877e-14
6.97072e-16
1.23524e-15
2.37707e-14
7.57504e-15
2.64594e-14
1.9723e-14
3.61849e-14
5.87588e-14
1.3178e-13
2.06497e-13
6.06225e-13
1.23816e-12
2.53178e-12
6.62472e-12
1.56148e-11
1.73179e-11
6.25319e-11
1.1253e-10
3.22118e-10
1.12912e-10
1.5585e-09
6.91486e-09
5.42262e-09
1.56291e-09
6.18909e-11
1.86575e-10
4.2918e-12
7.83688e-11
1.6911e-11
3.7369e-11
3.29495e-11
4.32814e-11
2.91362e-11
4.28581e-11
4.45319e-12
2.8269e-11
9.54182e-12
5.01718e-12
6.61145e-11
5.94449e-11
5.25715e-11
3.20292e-10
5.43562e-11
2.89606e-10
4.72939e-10
4.78157e-10
8.39747e-10
9.4388e-10
1.78406e-09
1.43132e-09
6.1364e-10
1.19146e-09
4.25386e-09
1.13294e-09
4.66275e-10
1.11156e-09
2.25565e-09
4.12283e-09
7.85275e-09
4.46786e-09
9.09116e-09
2.25355e-09
7.8692e-09
5.53074e-10
1.19685e-09
3.61974e-09
1.16324e-11
1.36169e-09
3.60929e-09
1.5094e-11
4.37641e-09
3.50999e-09
1.03764e-09
6.66081e-09
5.50485e-09
3.90346e-09
7.93315e-09
1.01471e-08
5.45666e-09
1.14215e-08
6.57167e-09
4.51227e-09
1.23975e-09
1.21334e-08
2.39131e-10
4.43277e-09
3.48977e-10
7.71539e-09
1.85497e-09
1.54084e-08
1.18034e-09
3.32945e-10
1.40996e-12
5.66023e-10
2.84726e-09
4.08656e-08
2.75248e-09
2.25725e-08
6.78381e-09
7.65039e-10
8.15732e-09
7.54727e-10
6.22961e-09
3.92567e-09
1.16344e-08
1.08378e-08
1.4852e-08
1.67848e-08
1.71092e-08
2.61017e-08
1.4203e-08
9.45519e-09
3.18888e-09
1.28516e-10
2.51609e-09
3.78241e-10
3.95436e-09
5.50551e-09
3.89103e-09
1.47837e-08
3.12624e-09
2.21795e-11
1.38193e-09
1.05456e-09
1.87721e-09
3.45616e-08
2.05282e-09
3.36558e-08
5.39441e-09
2.5075e-08
7.20149e-09
7.91957e-09
7.47994e-09
1.21306e-10
1.12529e-08
2.17745e-09
1.4483e-08
9.76977e-09
1.92928e-08
1.89484e-08
2.74549e-08
1.76403e-09
7.56441e-10
1.73143e-10
3.24129e-10
3.53725e-10
1.93928e-10
7.07385e-13
2.16053e-09
1.82461e-09
2.29761e-09
6.76424e-10
1.44387e-09
6.1802e-10
4.32528e-09
1.41318e-09
5.56783e-09
1.20918e-09
4.39322e-09
1.52818e-10
5.79159e-09
1.71315e-09
7.36438e-09
5.32446e-09
1.06152e-08
8.55092e-09
1.25065e-08
1.26565e-08
1.64434e-08
1.86113e-08
2.02536e-08
1.26168e-11
3.31192e-10
1.85383e-10
1.07279e-10
1.21582e-09
2.288e-11
1.15917e-09
8.59005e-10
8.19057e-10
1.10166e-09
2.36291e-09
4.22108e-10
1.77621e-09
8.78293e-10
1.45805e-09
2.08257e-09
1.35642e-09
3.45704e-09
2.2013e-09
4.75284e-09
4.47549e-09
5.90761e-09
6.86455e-09
8.52183e-09
9.37142e-09
1.12097e-08
1.27554e-08
1.48605e-08
1.64938e-08
2.07257e-08
6.5979e-11
1.14747e-10
1.27223e-09
9.84388e-10
2.12189e-09
9.97118e-10
2.12256e-09
1.94466e-09
1.70554e-09
2.31269e-09
2.76153e-09
1.3186e-09
2.57326e-09
2.0213e-09
2.96033e-09
2.71422e-09
3.13562e-09
3.35248e-09
4.07944e-09
4.89185e-09
6.02268e-09
6.13458e-09
8.16548e-09
8.64462e-09
1.05924e-08
1.10379e-08
1.32043e-08
1.41579e-08
1.7349e-08
1.7553e-08
1.81058e-10
3.91028e-10
2.07197e-09
1.44792e-09
2.50322e-09
1.00069e-09
2.55549e-09
1.26861e-09
2.12896e-09
1.9156e-09
2.74514e-09
1.53672e-09
2.89611e-09
2.06027e-09
3.35406e-09
2.82701e-09
3.53922e-09
3.68242e-09
4.64684e-09
4.84875e-09
6.31652e-09
6.22496e-09
8.15297e-09
8.68694e-09
1.02832e-08
1.07699e-08
1.25727e-08
1.38802e-08
1.6041e-08
1.75616e-08
5.21626e-10
1.28077e-09
2.46508e-09
1.73331e-09
2.40602e-09
1.40032e-09
2.53411e-09
1.5976e-09
2.39085e-09
2.44098e-09
2.95782e-09
2.16883e-09
3.20296e-09
2.63385e-09
3.77549e-09
3.39692e-09
4.06814e-09
4.14935e-09
5.28764e-09
5.43308e-09
6.71771e-09
6.64762e-09
8.41951e-09
8.776e-09
1.03475e-08
1.08336e-08
1.25111e-08
1.33621e-08
1.59856e-08
1.63788e-08
6.5507e-10
1.67029e-09
2.38183e-09
1.65618e-09
1.98561e-09
1.50568e-09
2.18472e-09
1.71221e-09
2.34611e-09
2.75673e-09
2.86055e-09
2.6933e-09
3.22712e-09
3.00707e-09
3.71731e-09
3.74306e-09
4.25539e-09
4.49989e-09
5.46051e-09
5.7577e-09
6.73521e-09
6.87986e-09
8.26998e-09
8.86517e-09
1.00829e-08
1.07192e-08
1.21663e-08
1.31484e-08
1.51402e-08
1.59349e-08
7.68679e-10
1.64276e-09
2.01203e-09
1.32661e-09
1.89971e-09
1.60418e-09
2.24831e-09
1.94098e-09
2.60541e-09
2.7348e-09
3.20392e-09
2.82132e-09
3.53163e-09
3.2268e-09
4.0462e-09
4.00097e-09
4.6282e-09
4.73471e-09
5.82581e-09
5.9722e-09
6.9005e-09
7.0139e-09
8.3443e-09
8.90216e-09
1.0052e-08
1.06562e-08
1.211e-08
1.28189e-08
1.47842e-08
1.54035e-08
4.23334e-10
1.17083e-09
1.36897e-09
1.23897e-09
1.63418e-09
1.75006e-09
2.1247e-09
2.12602e-09
2.52992e-09
3.01755e-09
2.94404e-09
3.07437e-09
3.45407e-09
3.48192e-09
3.93667e-09
4.30939e-09
4.71451e-09
4.99667e-09
5.77649e-09
6.25054e-09
6.8202e-09
7.16248e-09
8.21975e-09
9.00732e-09
9.89154e-09
1.05412e-08
1.18095e-08
1.25971e-08
1.41265e-08
1.49115e-08
1.43745e-10
4.70466e-10
1.31022e-09
1.25421e-09
1.73719e-09
1.85112e-09
2.22632e-09
2.26225e-09
2.72937e-09
2.90915e-09
3.17799e-09
3.18009e-09
3.66125e-09
3.7171e-09
4.21686e-09
4.4559e-09
4.99564e-09
5.15531e-09
6.05025e-09
6.33143e-09
6.9874e-09
7.32891e-09
8.34643e-09
9.04504e-09
9.93818e-09
1.05028e-08
1.17493e-08
1.24338e-08
1.37947e-08
1.45882e-08
6.53128e-12
2.60181e-10
5.90707e-10
1.0285e-09
1.46483e-09
1.85076e-09
2.08371e-09
2.19172e-09
2.44502e-09
2.87533e-09
2.80644e-09
3.13084e-09
3.56079e-09
3.71325e-09
4.06731e-09
4.56331e-09
4.91537e-09
5.21167e-09
5.85421e-09
6.45344e-09
6.88761e-09
7.31181e-09
8.22172e-09
9.04971e-09
9.71712e-09
1.032e-08
1.14111e-08
1.21862e-08
1.32614e-08
1.40535e-08
8.67389e-11
7.4558e-10
1.25597e-09
1.46253e-09
1.58601e-09
1.8492e-09
2.02058e-09
2.19628e-09
2.60524e-09
2.75512e-09
2.98025e-09
3.26576e-09
3.5578e-09
3.83413e-09
4.17575e-09
4.5697e-09
4.98853e-09
5.30304e-09
5.96641e-09
6.48356e-09
6.96933e-09
7.47299e-09
8.28023e-09
8.96896e-09
9.72485e-09
1.03246e-08
1.13222e-08
1.20598e-08
1.30309e-08
1.38774e-08
9.5409e-13
1.01578e-11
1.68266e-10
7.60033e-10
1.0904e-09
1.38791e-09
1.31651e-09
1.41371e-09
1.6842e-09
2.20324e-09
2.20416e-09
2.82899e-09
3.29193e-09
3.54943e-09
3.90194e-09
4.49412e-09
4.81295e-09
5.23693e-09
5.7583e-09
6.38434e-09
6.81047e-09
7.32233e-09
8.04037e-09
8.68242e-09
9.22196e-09
9.86506e-09
1.08261e-08
1.15989e-08
1.23961e-08
1.31134e-08
2.14328e-09
2.51025e-09
1.63447e-09
1.58445e-09
1.91035e-09
2.24748e-09
3.15861e-09
3.49453e-09
3.30935e-09
2.89455e-09
1.96825e-09
1.25947e-09
5.84648e-10
3.97714e-10
1.58012e-10
1.09044e-10
3.47992e-11
1.07358e-11
1.44235e-12
1.59482e-12
3.8664e-12
1.80485e-12
4.99632e-13
3.12156e-12
1.5317e-11
5.00727e-11
1.09714e-10
2.47513e-10
3.69376e-10
6.72338e-10
5.14669e-09
5.61163e-09
9.8834e-10
1.55082e-10
2.80448e-11
5.35176e-12
5.63112e-13
3.90953e-14
3.07541e-13
3.68966e-13
5.65359e-13
1.28834e-12
1.16074e-12
9.1902e-13
1.62856e-12
1.89096e-12
2.55115e-12
3.71638e-12
4.16434e-12
3.964e-12
4.17181e-12
6.40683e-12
8.18663e-12
6.82243e-12
5.55126e-12
5.84378e-12
5.66367e-12
5.33439e-12
4.53069e-12
2.96476e-12
3.46479e-11
4.70895e-12
2.46898e-13
1.26575e-14
6.82091e-14
2.46268e-14
2.95615e-15
3.38636e-16
8.45793e-18
4.55117e-16
8.23839e-16
1.10131e-15
7.79399e-16
3.2315e-15
4.96779e-15
3.23955e-15
3.5684e-15
1.43581e-14
2.09042e-14
1.74087e-14
1.37028e-14
2.50147e-14
4.76236e-14
6.34143e-14
5.61344e-14
4.22576e-14
3.09633e-14
3.36939e-14
3.42883e-14
1.68382e-14
2.84772e-09
1.67224e-09
6.03013e-10
3.03833e-10
7.83141e-11
2.04915e-10
7.37159e-11
2.42152e-10
5.86196e-10
2.20528e-09
3.58806e-09
8.93488e-09
7.25141e-09
1.69992e-08
2.65781e-09
7.58814e-09
6.10321e-10
2.53191e-08
2.57941e-11
6.28879e-09
2.22554e-08
2.47868e-08
1.06917e-08
4.31285e-08
4.19255e-08
7.0233e-08
1.02918e-08
6.83583e-08
3.908e-08
7.80138e-08
3.34958e-08
4.19335e-08
3.39875e-08
2.38834e-08
3.11024e-08
4.27818e-08
4.39997e-08
3.76145e-08
2.33281e-08
4.77591e-08
2.89467e-08
3.31721e-08
3.67623e-08
3.4986e-08
3.04889e-08
3.49704e-08
4.07725e-08
4.01564e-08
3.01939e-08
3.53031e-08
3.21566e-08
2.65781e-08
2.80923e-08
2.89784e-08
2.99271e-08
3.30984e-08
3.58172e-08
4.35503e-08
3.25541e-08
3.30101e-08
2.52457e-08
2.44054e-08
2.70596e-08
2.77686e-08
2.76311e-08
2.79707e-08
3.22002e-08
3.70867e-08
3.04955e-08
2.58166e-08
2.72774e-08
2.25138e-08
2.44755e-08
2.53927e-08
2.75967e-08
2.81466e-08
2.87207e-08
3.3301e-08
2.85929e-08
2.38416e-08
2.30231e-08
2.08492e-08
2.32767e-08
2.41606e-08
2.48582e-08
2.5776e-08
2.63736e-08
2.88717e-08
2.65859e-08
2.25077e-08
2.24595e-08
1.97774e-08
2.19233e-08
2.25136e-08
2.34396e-08
2.43401e-08
2.44994e-08
2.59704e-08
2.46419e-08
2.11495e-08
2.00293e-08
1.86683e-08
2.05966e-08
2.14588e-08
2.18664e-08
2.25612e-08
2.2907e-08
2.38862e-08
2.28865e-08
1.99065e-08
1.8917e-08
1.78662e-08
1.96322e-08
2.02087e-08
2.05413e-08
2.12619e-08
2.16664e-08
2.19391e-08
2.09679e-08
1.89249e-08
1.7349e-08
1.70537e-08
1.85728e-08
1.93011e-08
1.94916e-08
2.00039e-08
2.02763e-08
2.04735e-08
1.9574e-08
1.77691e-08
1.66659e-08
1.64772e-08
1.77824e-08
1.82944e-08
1.85946e-08
1.89912e-08
1.90986e-08
1.89828e-08
1.83138e-08
1.68333e-08
1.54746e-08
1.57567e-08
1.69221e-08
1.7526e-08
1.76907e-08
1.80424e-08
1.80442e-08
1.78702e-08
1.71019e-08
1.58324e-08
1.51979e-08
1.53199e-08
1.63067e-08
1.67317e-08
1.70323e-08
1.72635e-08
1.71823e-08
1.69e-08
1.63423e-08
1.52704e-08
1.40264e-08
1.42241e-08
1.53225e-08
1.55447e-08
1.61185e-08
1.58656e-08
1.60869e-08
1.49907e-08
1.47571e-08
1.2611e-08
1.03677e-09
7.04098e-10
1.40027e-09
1.24339e-09
1.77418e-09
1.39426e-09
1.70823e-09
1.2672e-09
1.41867e-09
9.34846e-10
2.01752e-12
1.37308e-12
1.253e-13
2.69192e-13
5.32122e-14
9.15863e-13
1.13891e-12
3.0552e-12
3.96008e-12
4.63236e-12
2.93962e-14
5.48969e-16
7.49657e-16
1.6413e-15
8.92554e-16
6.97247e-15
4.07053e-15
1.37365e-14
6.54466e-15
4.15689e-15
3.69596e-08
3.92579e-08
4.62305e-09
6.76337e-08
2.05111e-08
1.04095e-07
4.78724e-08
1.53926e-08
2.45038e-09
5.98442e-10
1.67769e-10
8.42549e-11
4.87474e-11
4.83259e-11
6.50922e-11
1.41795e-10
4.47617e-10
1.49894e-09
8.7149e-09
3.51387e-08
1.09151e-07
5.46259e-08
8.34534e-09
1.27789e-09
2.52507e-10
6.25556e-11
1.83693e-11
5.34872e-12
1.25586e-12
2.31107e-13
7.20335e-14
8.90387e-14
2.24303e-13
2.65796e-13
7.63976e-14
6.74216e-15
1.87917e-13
6.86056e-13
1.2587e-12
5.40887e-13
8.48694e-08
4.7197e-07
2.89546e-09
2.50496e-08
4.53289e-09
1.14964e-08
1.31574e-07
1.36576e-07
5.00651e-08
3.69417e-08
5.94625e-07
1.5737e-07
4.71145e-09
1.1892e-10
1.11607e-09
8.41896e-09
1.99103e-08
2.37165e-08
4.17643e-08
5.40038e-08
6.0286e-08
5.69827e-08
4.94731e-08
3.9086e-08
2.84718e-08
1.94122e-08
1.20501e-08
6.4618e-09
2.68062e-09
9.04694e-10
2.51632e-10
8.59726e-11
3.46132e-11
3.14345e-11
2.07038e-11
1.49193e-11
1.9661e-12
9.90111e-13
8.50703e-13
3.74133e-12
7.87746e-08
8.79199e-07
1.38333e-06
9.6967e-08
1.71372e-08
1.09721e-07
1.11266e-08
6.84027e-08
3.01847e-07
7.29863e-07
5.71328e-07
1.68682e-07
2.81473e-08
9.14266e-10
4.18575e-13
1.75855e-13
9.54616e-10
4.19014e-09
1.28999e-08
2.69875e-08
4.1007e-08
4.99136e-08
5.06904e-08
4.58759e-08
3.88593e-08
3.18967e-08
2.72427e-08
2.38295e-08
1.9107e-08
1.30084e-08
6.74382e-09
3.83242e-09
1.79852e-09
1.28248e-09
5.39577e-10
1.5752e-10
7.8915e-11
1.52769e-12
2.70906e-11
3.0981e-13
1.00166e-07
8.63425e-07
4.97205e-07
1.68857e-07
6.40365e-08
9.59584e-08
2.07571e-07
6.44442e-07
7.22545e-07
1.09462e-06
9.19685e-07
3.38719e-07
4.5495e-08
5.93526e-09
2.32784e-10
1.56432e-11
8.98611e-13
6.65999e-10
5.56377e-09
1.85476e-08
3.32968e-08
4.68247e-08
5.44946e-08
5.42387e-08
4.92296e-08
4.10146e-08
3.26078e-08
2.74023e-08
2.3685e-08
1.96795e-08
1.36708e-08
9.0051e-09
7.46819e-09
7.4891e-09
9.41599e-09
5.7934e-09
7.07203e-09
9.66699e-10
2.31872e-09
3.64073e-09
1.592e-07
3.42656e-07
5.80994e-07
4.57763e-08
1.21502e-07
2.01661e-09
9.04369e-07
8.92117e-07
7.98619e-07
1.1366e-06
1.05905e-06
5.40225e-07
9.81368e-08
1.18824e-08
1.76946e-09
5.98047e-10
1.02361e-10
6.56044e-12
1.69565e-09
1.49621e-08
3.36638e-08
4.44348e-08
5.11859e-08
5.22803e-08
4.67083e-08
3.483e-08
2.16181e-08
1.25996e-08
3.64599e-09
9.71824e-10
2.24182e-12
1.58323e-09
5.30675e-11
3.19922e-09
9.5384e-10
2.17444e-09
1.1702e-09
6.31573e-10
5.48888e-10
1.59038e-11
1.90657e-09
1.52128e-08
2.41097e-08
1.39699e-07
1.35226e-07
2.02251e-08
1.06722e-07
2.75205e-07
6.13104e-07
1.1261e-06
1.15967e-06
6.90237e-07
1.99628e-07
4.2466e-08
1.09948e-08
4.79133e-09
1.71238e-09
2.5861e-11
5.34913e-10
1.2737e-08
4.59268e-08
5.99672e-08
5.56813e-08
4.68685e-08
3.44665e-08
1.61315e-08
6.91927e-10
6.54732e-10
2.39134e-08
2.45732e-08
7.31997e-09
2.14101e-11
2.76138e-10
3.66517e-09
3.06517e-09
3.06254e-09
6.94445e-10
5.64111e-11
5.8498e-10
4.72799e-10
1.44149e-09
6.90458e-09
1.10099e-07
2.5715e-07
2.03646e-07
1.67978e-08
2.68246e-07
5.22355e-07
7.17829e-07
1.05994e-06
1.11479e-06
6.96529e-07
2.49207e-07
8.59128e-08
4.56058e-08
2.59151e-08
8.78734e-09
5.48442e-10
5.26039e-10
1.49087e-08
5.05193e-08
5.99731e-08
4.44375e-08
3.18197e-08
2.32004e-08
1.68418e-08
9.03447e-09
4.01135e-09
3.27591e-09
3.0143e-09
4.82354e-09
5.08931e-09
9.95935e-09
8.49643e-09
7.05057e-11
3.54358e-10
2.58246e-09
3.5526e-09
8.00061e-11
6.76493e-09
2.14497e-08
1.14335e-08
8.5943e-09
1.92444e-08
2.46835e-07
1.86072e-07
7.27549e-09
9.34011e-08
7.76539e-07
1.50002e-06
1.61176e-06
1.1844e-06
5.78246e-07
2.60054e-07
1.73995e-07
1.04433e-07
1.89768e-08
4.68897e-11
5.62016e-09
4.20508e-08
6.60976e-08
5.11635e-08
2.79957e-08
2.12116e-08
2.40083e-08
2.56762e-08
2.54191e-08
2.29738e-08
2.04337e-08
1.58273e-08
1.1015e-08
1.43222e-08
1.38222e-08
1.34138e-08
4.94128e-09
4.31869e-10
6.35637e-10
5.27127e-10
6.00133e-09
4.97902e-09
7.9558e-07
1.18541e-08
9.29323e-09
1.09498e-08
1.07321e-08
4.84501e-09
2.56986e-10
1.96006e-08
3.5116e-07
1.06374e-06
1.41286e-06
1.259e-06
7.86683e-07
4.22574e-07
2.59379e-07
1.78285e-07
2.92667e-08
3.68188e-09
5.38442e-08
7.094e-08
6.56356e-08
5.12876e-08
4.07403e-08
3.62024e-08
3.34839e-08
2.81429e-08
2.4972e-08
2.48713e-08
2.24852e-08
1.56017e-08
5.8424e-09
4.88237e-09
7.64478e-09
1.08208e-08
9.53339e-09
5.72988e-09
3.9951e-09
2.61243e-09
4.31619e-09
1.7517e-09
2.98197e-10
4.02299e-07
6.14479e-08
1.68996e-08
1.29911e-08
1.17314e-10
1.03978e-08
1.13241e-07
5.48855e-07
1.03538e-06
1.25277e-06
1.20721e-06
9.06872e-07
6.18972e-07
4.69045e-07
1.19559e-07
3.7112e-09
6.25807e-08
6.2956e-08
5.00331e-08
5.45845e-08
4.7883e-08
4.09379e-08
3.68758e-08
3.49602e-08
3.0472e-08
2.26374e-08
1.79017e-08
1.94855e-08
1.87338e-08
1.36653e-08
8.39963e-09
6.87755e-09
2.45974e-09
1.88064e-09
5.85807e-08
5.65834e-10
6.38092e-09
4.37663e-10
3.51614e-09
3.01073e-08
4.44105e-08
2.21724e-08
5.82635e-08
1.15681e-08
1.07393e-09
1.75892e-08
4.1833e-07
9.70334e-07
1.13311e-06
1.13123e-06
1.06082e-06
9.20812e-07
5.2953e-07
1.3415e-09
3.74314e-08
6.81192e-08
6.34742e-08
6.09355e-08
4.99484e-08
4.43412e-08
3.98597e-08
3.63622e-08
3.2443e-08
2.92311e-08
2.18055e-08
1.11049e-08
1.30465e-08
1.19078e-08
3.5701e-09
1.01162e-09
6.99069e-08
2.62981e-09
8.41172e-08
8.43671e-08
6.9753e-08
3.96579e-08
3.20482e-09
3.16241e-09
3.19524e-09
4.88198e-08
2.66823e-08
1.9747e-08
2.45838e-08
5.31392e-08
5.4663e-08
3.1884e-08
4.46846e-09
1.32201e-08
1.07762e-07
6.05051e-08
7.19328e-09
3.47997e-09
3.97039e-08
6.21421e-08
6.84148e-08
6.55707e-08
5.47072e-08
4.9215e-08
4.43872e-08
3.85739e-08
3.49372e-08
3.26354e-08
2.81029e-08
2.6396e-08
2.23095e-08
1.57276e-08
4.77243e-09
1.0855e-08
8.3038e-09
9.54287e-09
4.20628e-09
4.24139e-09
6.67801e-09
2.07004e-09
5.99808e-09
7.32694e-09
2.87174e-11
1.99679e-08
1.88446e-12
3.23555e-08
2.88758e-08
2.4596e-08
2.46637e-08
3.37472e-08
4.30382e-08
4.47703e-08
4.95843e-08
4.83666e-08
4.46373e-08
4.52198e-08
4.85479e-08
5.67057e-08
6.10167e-08
5.71622e-08
5.55428e-08
5.26292e-08
4.82044e-08
4.31024e-08
4.08855e-08
3.88248e-08
3.30211e-08
2.92606e-08
2.62453e-08
2.43303e-08
2.36678e-08
2.15924e-08
1.78121e-08
1.53301e-08
1.52713e-08
1.19247e-08
1.09355e-08
8.05129e-09
6.67754e-09
7.03026e-09
3.06426e-09
3.57158e-09
1.06854e-09
6.87767e-11
2.01814e-09
3.30514e-08
2.72419e-08
2.42325e-08
2.69262e-08
3.27958e-08
3.66774e-08
4.1157e-08
4.64355e-08
5.24896e-08
5.39881e-08
5.07702e-08
5.17332e-08
5.19194e-08
5.32613e-08
4.89146e-08
4.44651e-08
4.42094e-08
4.31198e-08
4.0102e-08
3.58878e-08
3.37442e-08
3.14257e-08
2.83933e-08
2.62918e-08
2.41625e-08
2.13938e-08
1.83552e-08
1.72767e-08
1.4978e-08
1.33243e-08
1.05718e-08
6.94108e-09
7.61678e-09
5.64136e-09
6.04996e-09
1.73529e-09
8.81285e-09
2.9365e-09
7.87624e-10
6.8591e-09
2.53298e-08
2.43199e-08
2.48037e-08
2.62248e-08
2.91975e-08
3.07981e-08
3.49163e-08
3.9546e-08
4.35419e-08
4.63463e-08
4.61794e-08
4.5241e-08
4.36537e-08
4.38323e-08
4.20443e-08
3.98153e-08
3.82471e-08
3.75006e-08
3.55757e-08
3.31548e-08
2.93513e-08
2.71169e-08
2.63595e-08
2.39296e-08
2.21205e-08
2.05428e-08
1.82424e-08
1.29324e-08
1.27971e-08
1.08561e-08
1.02337e-08
5.06019e-09
5.231e-09
5.44824e-09
4.46447e-09
3.48194e-09
4.53605e-09
2.86448e-08
2.07731e-09
6.01955e-12
2.31837e-08
2.37627e-08
2.49185e-08
2.52881e-08
2.60029e-08
2.65252e-08
2.92416e-08
3.47801e-08
3.61927e-08
3.73944e-08
3.94441e-08
3.73719e-08
3.61205e-08
3.57891e-08
3.62211e-08
3.51496e-08
3.18056e-08
3.15006e-08
3.09303e-08
2.92178e-08
2.79622e-08
2.58941e-08
2.49458e-08
2.34335e-08
2.11996e-08
1.86419e-08
1.79845e-08
1.61075e-08
1.42415e-08
1.30923e-08
1.08962e-08
9.7787e-09
7.27708e-09
6.57438e-09
6.26469e-09
4.94444e-09
5.41096e-09
1.72113e-09
8.74164e-11
2.38709e-11
2.04356e-08
2.24421e-08
2.37658e-08
2.36817e-08
2.3504e-08
2.31741e-08
2.5268e-08
3.06161e-08
3.28724e-08
3.20066e-08
3.32083e-08
3.16545e-08
3.04603e-08
3.00319e-08
3.03271e-08
3.07973e-08
2.91421e-08
2.68313e-08
2.71632e-08
2.60791e-08
2.48755e-08
2.44536e-08
2.29129e-08
2.15779e-08
2.06199e-08
1.86577e-08
1.65814e-08
1.56439e-08
1.42984e-08
1.2192e-08
1.00867e-08
9.24655e-09
8.04628e-09
6.36709e-09
5.27464e-09
3.89194e-09
4.08758e-09
5.62421e-11
1.85929e-09
9.06061e-10
1.92644e-08
2.1168e-08
2.20082e-08
2.17205e-08
2.1225e-08
2.08179e-08
2.26634e-08
2.59038e-08
2.88187e-08
2.91089e-08
2.80316e-08
2.70074e-08
2.58675e-08
2.59093e-08
2.55643e-08
2.53427e-08
2.56394e-08
2.41451e-08
2.25818e-08
2.33196e-08
2.32136e-08
2.24226e-08
2.19832e-08
2.03163e-08
1.92682e-08
1.83839e-08
1.72566e-08
1.48877e-08
1.3357e-08
1.20778e-08
1.08003e-08
9.25623e-09
7.62013e-09
7.05082e-09
5.25528e-09
4.0538e-09
3.76588e-09
1.68374e-09
3.40959e-09
2.98308e-09
1.84192e-08
1.9492e-08
2.02557e-08
1.98219e-08
1.89653e-08
1.90931e-08
2.05311e-08
2.21666e-08
2.36364e-08
2.46583e-08
2.40924e-08
2.32102e-08
2.25657e-08
2.21189e-08
2.19834e-08
2.12278e-08
2.12039e-08
2.16885e-08
2.07564e-08
2.02674e-08
2.14068e-08
2.09656e-08
2.03551e-08
2.01108e-08
1.95123e-08
1.78005e-08
1.67274e-08
1.51574e-08
1.36399e-08
1.21865e-08
1.08169e-08
9.8832e-09
7.72385e-09
6.7352e-09
6.12746e-09
4.9278e-09
5.01773e-09
3.43009e-09
2.77713e-09
2.53135e-09
1.70506e-08
1.77928e-08
1.82932e-08
1.80032e-08
1.72484e-08
1.70065e-08
1.81409e-08
1.95807e-08
2.0065e-08
2.05107e-08
2.04257e-08
1.97942e-08
1.97101e-08
1.91579e-08
1.85484e-08
1.87116e-08
1.77731e-08
1.74068e-08
1.88098e-08
1.90478e-08
1.89066e-08
1.96317e-08
1.99189e-08
1.91444e-08
1.84338e-08
1.71786e-08
1.59316e-08
1.4512e-08
1.34211e-08
1.17134e-08
1.01086e-08
8.78512e-09
7.84135e-09
6.88701e-09
5.56771e-09
4.38466e-09
3.76928e-09
2.96486e-09
3.55198e-09
2.85243e-09
1.62905e-08
1.66294e-08
1.66063e-08
1.62406e-08
1.57766e-08
1.54774e-08
1.57053e-08
1.66134e-08
1.73647e-08
1.72394e-08
1.72694e-08
1.73479e-08
1.66817e-08
1.65951e-08
1.62505e-08
1.52557e-08
1.53586e-08
1.54745e-08
1.55927e-08
1.69102e-08
1.79972e-08
1.80704e-08
1.82422e-08
1.77826e-08
1.68803e-08
1.55466e-08
1.45326e-08
1.28895e-08
1.13251e-08
9.88556e-09
8.62272e-09
7.39663e-09
5.9686e-09
4.87919e-09
4.26952e-09
3.51518e-09
3.36031e-09
2.62442e-09
2.50596e-09
2.19846e-09
1.51226e-08
1.51548e-08
1.50561e-08
1.45959e-08
1.39923e-08
1.38113e-08
1.38958e-08
1.39877e-08
1.44142e-08
1.48689e-08
1.47876e-08
1.48829e-08
1.49663e-08
1.44548e-08
1.40477e-08
1.35833e-08
1.27834e-08
1.28236e-08
1.32899e-08
1.32112e-08
1.34144e-08
1.32668e-08
1.21634e-08
1.04367e-08
8.83229e-09
6.85605e-09
5.24271e-09
3.77778e-09
2.92238e-09
1.92453e-09
1.36266e-09
9.4287e-10
7.49166e-10
6.78791e-10
4.52513e-10
4.0271e-10
3.42533e-10
3.26146e-10
5.06855e-10
4.90163e-10
1.46691e-08
1.45067e-08
1.41529e-08
1.35895e-08
1.30336e-08
1.2588e-08
1.24852e-08
1.27006e-08
1.28785e-08
1.33176e-08
1.39809e-08
1.42577e-08
1.44404e-08
1.43673e-08
1.30957e-08
1.10031e-08
8.60617e-09
5.17022e-09
2.39266e-09
9.77461e-10
2.78536e-10
2.50904e-11
5.85995e-12
2.15215e-11
5.9074e-11
1.22027e-10
1.24593e-10
1.29877e-10
9.17503e-11
7.4449e-11
2.58451e-11
1.00337e-11
8.05779e-13
5.52753e-14
8.23606e-13
4.50408e-12
1.07153e-11
2.30116e-11
2.65438e-11
3.34378e-11
1.20881e-08
1.20069e-08
1.18707e-08
1.15667e-08
1.11961e-08
1.10617e-08
1.10353e-08
1.1313e-08
1.1779e-08
1.2057e-08
1.23059e-08
1.23951e-08
1.12816e-08
9.15329e-09
6.40641e-09
3.01357e-09
6.57615e-10
1.98166e-11
2.00925e-11
3.36364e-10
7.59476e-10
1.00468e-09
1.14424e-09
1.18981e-09
1.04068e-09
8.5467e-10
5.85599e-10
3.72152e-10
1.83996e-10
1.02278e-10
4.17929e-11
1.70175e-11
2.88171e-12
1.98748e-13
1.76577e-14
6.68665e-13
1.7109e-12
3.87842e-12
4.89429e-12
5.40461e-12
9.01517e-10
9.22662e-10
9.9765e-10
1.12024e-09
1.32362e-09
1.55364e-09
1.77273e-09
2.08489e-09
2.38928e-09
2.61886e-09
2.70675e-09
2.62214e-09
2.22166e-09
1.57236e-09
8.26323e-10
2.59101e-10
2.15235e-11
5.02615e-12
1.06631e-10
2.8107e-10
3.53484e-10
3.24019e-10
2.73495e-10
2.22238e-10
1.64518e-10
1.2206e-10
8.47262e-11
5.22849e-11
2.36616e-11
1.04236e-11
3.50141e-12
9.99271e-13
6.30596e-14
2.21645e-14
4.91485e-13
8.74504e-13
1.77111e-12
1.77197e-12
1.80618e-12
1.40037e-12
5.02929e-12
5.37581e-12
7.24953e-12
1.09917e-11
1.83739e-11
2.8406e-11
4.06103e-11
5.7793e-11
7.91528e-11
1.0301e-10
1.28486e-10
1.46816e-10
1.43504e-10
1.19247e-10
7.68055e-11
2.74263e-11
2.73225e-12
2.70309e-12
2.35993e-11
5.9541e-11
7.89719e-11
7.61452e-11
5.99211e-11
3.9658e-11
2.135e-11
1.11423e-11
5.2489e-12
2.11683e-12
5.28682e-13
6.65319e-14
1.52634e-16
2.65195e-14
2.66634e-13
5.45361e-13
1.1567e-12
1.19094e-12
1.4574e-12
1.15447e-12
9.57299e-13
7.02067e-13
1.02615e-14
2.18152e-15
1.11288e-14
3.61007e-14
8.24517e-14
1.76899e-13
3.4765e-13
6.04302e-13
1.00449e-12
1.59119e-12
2.44135e-12
3.72466e-12
4.91932e-12
5.85704e-12
5.95354e-12
2.10401e-12
8.13783e-14
2.48729e-12
1.23896e-11
1.76767e-11
1.10888e-11
2.51613e-12
1.01179e-13
1.77901e-14
4.22532e-13
9.17637e-13
1.12151e-12
9.73586e-13
9.38877e-13
7.38073e-13
5.9631e-13
4.03952e-13
3.12568e-13
1.98117e-13
1.43006e-13
7.32636e-14
4.65235e-14
1.84872e-14
2.9462e-14
7.33422e-14
)
;

boundaryField
{
    inlet
    {
        type            calculated;
        value           nonuniform List<scalar> 
20
(
1.55139e-34
1.82517e-32
6.17633e-33
9.05926e-33
1.98409e-33
4.42333e-34
8.1042e-34
1.76555e-33
1.82836e-33
1.67979e-33
1.83913e-33
1.77868e-33
1.49215e-33
9.94429e-34
2.16215e-34
4.26808e-34
5.1492e-35
5.08072e-33
5.94608e-33
1.4853e-34
)
;
    }
    outlet
    {
        type            calculated;
        value           nonuniform List<scalar> 
27
(
9.31167e-33
2.2366e-33
2.57891e-32
3.37494e-32
9.15719e-34
6.96554e-33
1.69463e-33
6.12101e-33
1.6622e-33
1.24117e-32
1.5646e-32
1.35497e-32
1.5844e-32
1.62959e-32
7.2974e-33
1.10741e-33
1.87281e-36
4.01699e-35
1.67992e-34
3.19746e-35
1.55429e-34
2.11955e-34
2.28115e-34
2.42991e-32
2.90542e-33
6.50586e-36
6.60824e-33
)
;
    }
    lowerWall
    {
        type            fixedValue;
        value           uniform 0;
    }
    upperWall
    {
        type            fixedValue;
        value           uniform 0;
    }
    defaultFaces
    {
        type            empty;
    }
}


// ************************************************************************* //
