/*--------------------------------*- C++ -*----------------------------------*\
| =========                 |                                                 |
| \\      /  F ield         | OpenFOAM: The Open Source CFD Toolbox           |
|  \\    /   O peration     | Version:  2112                                  |
|   \\  /    A nd           | Website:  www.openfoam.com                      |
|    \\/     M anipulation  |                                                 |
\*---------------------------------------------------------------------------*/
FoamFile
{
    version     2.0;
    format      ascii;
    arch        "LSB;label=32;scalar=64";
    class       volScalarField;
    location    "0.5";
    object      p;
}
// * * * * * * * * * * * * * * * * * * * * * * * * * * * * * * * * * * * * * //

dimensions      [0 2 -2 0 0 0 0];

internalField   nonuniform List<scalar> 
1880
(
0.00310999
0.00297614
0.00288433
0.00283455
0.00280785
0.00278585
0.00276774
0.00275008
0.00273486
0.00272374
0.00271258
0.00270882
0.00270567
0.00270587
0.00271363
0.00272191
0.00273672
0.00276069
0.00278666
0.00282116
0.00286895
0.00291287
0.00297878
0.00304595
0.00311607
0.00319157
0.00325926
0.0033108
0.00333909
0.00324477
0.00292933
0.00289902
0.00285739
0.00282157
0.00279208
0.0027717
0.00275296
0.00273972
0.00272518
0.00271485
0.00270313
0.0026984
0.00269441
0.00269266
0.00270003
0.00270547
0.00271788
0.00274057
0.00275873
0.00279524
0.00283224
0.00287381
0.0029301
0.00299171
0.00304938
0.00311584
0.00317767
0.00321969
0.00325913
0.00325066
0.00289543
0.00287652
0.0028462
0.00281459
0.00278609
0.00276509
0.00274538
0.00273264
0.00271714
0.00270666
0.00269458
0.00268747
0.00268236
0.00267766
0.00268247
0.00268387
0.00269357
0.00270892
0.002723
0.00274905
0.00277699
0.00280732
0.00284854
0.00289114
0.00292903
0.00297578
0.00301318
0.00303975
0.0030666
0.00307151
0.00283659
0.00282908
0.0028105
0.00278918
0.00276746
0.00274857
0.00273175
0.00271678
0.00270332
0.00269038
0.00268011
0.00267052
0.00266416
0.00265726
0.00265785
0.00265637
0.00266083
0.00266892
0.00267738
0.0026932
0.00271088
0.00272815
0.0027564
0.0027762
0.00280128
0.00282267
0.00283832
0.00284154
0.00284015
0.00282296
0.00280701
0.00280319
0.00279025
0.00277372
0.00275498
0.0027383
0.00272136
0.00270559
0.00269127
0.00267694
0.00266598
0.00265443
0.00264581
0.00263646
0.0026321
0.00262801
0.00262538
0.00262816
0.00262947
0.00263575
0.00264235
0.00264981
0.0026604
0.00266641
0.00267162
0.00267204
0.00266435
0.00264573
0.00261307
0.00256873
0.0027797
0.00277585
0.00276664
0.0027522
0.00273748
0.0027221
0.00270711
0.00269096
0.00267591
0.00266049
0.00264798
0.00263546
0.00262398
0.00261211
0.00260388
0.00259517
0.00258767
0.00258345
0.00257824
0.0025751
0.00257212
0.00256727
0.00256493
0.00255537
0.00254333
0.00252553
0.00249751
0.00245528
0.00239961
0.00232898
0.00275851
0.00275534
0.00274821
0.00273592
0.0027229
0.00270867
0.00269428
0.00267798
0.00266189
0.00264517
0.0026305
0.00261649
0.00260181
0.00258755
0.00257475
0.00256222
0.00254908
0.00253824
0.00252647
0.00251472
0.0025014
0.00248671
0.0024712
0.00244785
0.00242096
0.00238646
0.00233899
0.00227932
0.00220304
0.002111
0.00274219
0.00273791
0.00273198
0.00272102
0.00270872
0.00269496
0.0026804
0.00266404
0.00264701
0.00262886
0.00261224
0.00259601
0.00257877
0.00256128
0.00254476
0.00252774
0.00250955
0.00249223
0.00247419
0.00245379
0.00243205
0.0024071
0.00238021
0.00234508
0.00230423
0.00225452
0.00219287
0.00211684
0.00202398
0.00191477
0.00272886
0.00272405
0.00271872
0.00270855
0.00269646
0.00268274
0.00266747
0.00265086
0.00263268
0.00261304
0.00259439
0.00257579
0.00255589
0.00253524
0.00251485
0.00249365
0.00247038
0.00244703
0.00242268
0.00239492
0.00236473
0.00233066
0.00229374
0.00224775
0.00219448
0.00213282
0.00205806
0.00196833
0.00186276
0.00174048
0.00271908
0.00271387
0.00270822
0.00269855
0.00268615
0.0026719
0.00265573
0.00263818
0.00261896
0.00259759
0.00257689
0.00255591
0.00253324
0.0025094
0.00248543
0.00245994
0.00243197
0.00240287
0.0023728
0.00233803
0.0023002
0.00225816
0.00221197
0.00215658
0.00209299
0.00202036
0.00193505
0.00183464
0.00171888
0.00158638
0.00271235
0.00270688
0.00270075
0.00269113
0.00267797
0.00266287
0.00264534
0.00262652
0.0026061
0.00258282
0.00256013
0.00253674
0.00251121
0.00248444
0.00245686
0.00242735
0.00239493
0.00236053
0.00232505
0.00228406
0.0022392
0.00219007
0.00213577
0.00207214
0.0019995
0.00191791
0.00182424
0.00171503
0.00159099
0.00145142
0.00270906
0.00270359
0.00269655
0.00268636
0.00267226
0.0026558
0.00263679
0.00261633
0.00259444
0.00256938
0.00254454
0.00251887
0.00249056
0.0024608
0.00242993
0.00239651
0.00235987
0.00232072
0.00228021
0.00223369
0.00218242
0.00212707
0.0020657
0.00199467
0.00191465
0.00182566
0.00172508
0.0016091
0.00147885
0.00133413
0.00270942
0.0027038
0.00269554
0.00268414
0.0026685
0.00265017
0.00262933
0.00260689
0.00258344
0.00255662
0.00252969
0.00250196
0.00247092
0.00243838
0.00240446
0.00236728
0.00232684
0.00228345
0.00223825
0.00218691
0.00212996
0.00206914
0.00200181
0.00192445
0.00183824
0.00174325
0.00163708
0.00151588
0.00138075
0.00123222
0.00271443
0.00270869
0.00269921
0.00268613
0.00266872
0.00264822
0.00262531
0.00260075
0.00257535
0.00254679
0.00251759
0.00248757
0.00245388
0.00241842
0.00238155
0.00234087
0.00229677
0.00224965
0.0022001
0.00214441
0.00208255
0.00201687
0.00194448
0.00186164
0.00177039
0.00167077
0.00156003
0.00143478
0.0012961
0.00114518
0.00272387
0.00271705
0.00270515
0.0026889
0.00266844
0.00264507
0.00261976
0.0025931
0.00256588
0.00253587
0.00250481
0.00247296
0.00243718
0.00239926
0.00235991
0.00231618
0.00226891
0.00221867
0.00216524
0.00210572
0.00203985
0.00196992
0.00189321
0.00180595
0.0017106
0.00160726
0.00149275
0.00136443
0.00122345
0.00107061
0.00274267
0.00273458
0.0027197
0.00269931
0.00267493
0.00264819
0.00262027
0.00259158
0.00256252
0.00253098
0.00249794
0.0024637
0.00242548
0.00238478
0.00234257
0.00229584
0.00224543
0.00219225
0.00213521
0.00207215
0.0020029
0.00192913
0.00184853
0.00175773
0.00165919
0.0015529
0.00143533
0.00130461
0.00116216
0.00100884
0.00276301
0.00275082
0.00273022
0.00270403
0.00267546
0.00264602
0.00261627
0.00258634
0.00255577
0.00252273
0.0024879
0.00245146
0.00241123
0.00236849
0.00232417
0.00227535
0.00222282
0.00216742
0.00210751
0.00204162
0.0019699
0.00189299
0.00180903
0.0017156
0.00161473
0.00150611
0.00138637
0.00125429
0.00111093
0.000956034
0.00281623
0.00279369
0.00275925
0.00272153
0.00268599
0.0026528
0.00262122
0.00258982
0.00255716
0.0025221
0.00248516
0.00244634
0.00240437
0.00235997
0.00231357
0.00226291
0.00220828
0.00215034
0.00208751
0.00201874
0.0019444
0.00186425
0.00177715
0.00168178
0.00157898
0.00146804
0.00134659
0.00121379
0.00107054
0.000916501
0.00284495
0.0028103
0.00276529
0.00272244
0.00268501
0.00265163
0.00261961
0.00258723
0.00255286
0.00251626
0.00247793
0.0024374
0.00239421
0.00234846
0.00229995
0.00224771
0.0021914
0.00213095
0.00206566
0.00199526
0.00191965
0.00183727
0.00174784
0.00165169
0.00154817
0.00143583
0.00131355
0.00118045
0.00103638
0.000881153
0.00302452
0.0028847
0.00278738
0.00273302
0.00269729
0.00266369
0.00262886
0.00259299
0.00255588
0.00251771
0.00247835
0.00243709
0.00239348
0.0023471
0.00229742
0.00224419
0.0021868
0.00212519
0.00205897
0.00198761
0.00191049
0.00182675
0.00173627
0.00163916
0.00153446
0.00142108
0.00129836
0.00116584
0.00102334
0.000870804
0.003373
0.00351491
0.0031139
0.00283542
0.00217261
0.00168142
0.000758601
7.2574e-05
-0.00133039
-0.00264715
0.00338894
0.00334842
0.00278722
0.00244569
0.00175989
0.00119062
0.000308475
-0.000526938
-0.00166946
-0.00299297
0.00310634
0.00294363
0.00245122
0.00214753
0.00149805
0.000996029
0.00017646
-0.000562563
-0.00158731
-0.00256029
0.00280921
0.00260625
0.00217785
0.00177991
0.00123593
0.000651134
-4.14511e-05
-0.00082623
-0.00165735
-0.00253876
0.00251052
0.0022915
0.00186748
0.00150183
0.000991589
0.000472207
-0.000151025
-0.000863992
-0.00159727
-0.00233993
0.00224706
0.00200072
0.00164397
0.00124792
0.000806728
0.000272599
-0.000282104
-0.000943209
-0.00159453
-0.00224375
0.00200409
0.00176738
0.00141725
0.00104158
0.000625207
0.000140568
-0.000369499
-0.000955873
-0.00154785
-0.00211499
0.00179443
0.00155258
0.00123436
0.000866906
0.000483981
2.89037e-05
-0.000446849
-0.000978815
-0.00151797
-0.00202666
0.00160498
0.00137389
0.00106863
0.000720885
0.000356897
-5.98884e-05
-0.000503597
-0.000987005
-0.00147735
-0.00193937
0.00144254
0.00121724
0.000929622
0.000599468
0.000255778
-0.000130309
-0.000545065
-0.000991475
-0.00143981
-0.00186624
0.00129942
0.00108239
0.000808348
0.000496461
0.000169312
-0.000190019
-0.000577291
-0.000990616
-0.00140271
-0.00179802
0.00117758
0.000967761
0.000707429
0.000412144
0.000101317
-0.000235856
-0.000598284
-0.000983013
-0.00136541
-0.00173517
0.00107144
0.000867621
0.000619489
0.000339511
4.33996e-05
-0.000275064
-0.000615468
-0.000974219
-0.00133113
-0.00167825
0.000982993
0.000785246
0.000548541
0.000282365
-1.59515e-09
-0.000302317
-0.000623691
-0.000960118
-0.00129596
-0.00162468
0.000905739
0.000711795
0.000485001
0.000231301
-3.86064e-05
-0.000326643
-0.000631213
-0.000948142
-0.00126553
-0.00157766
0.000844513
0.000655417
0.000437622
0.000194922
-6.39694e-05
-0.000339847
-0.000630454
-0.000931634
-0.00123418
-0.00153349
0.000789272
0.000602234
0.000391949
0.000159345
-8.91488e-05
-0.000353735
-0.000631644
-0.0009191
-0.0012087
-0.00149622
0.000751094
0.000568046
0.000364372
0.000139665
-0.000101124
-0.00035738
-0.000625774
-0.000902954
-0.00118307
-0.00146239
0.00071438
0.000532972
0.00033506
0.000118847
-0.000113701
-0.000361805
-0.000621348
-0.000889941
-0.00116262
-0.00143538
0.000706861
0.00052654
0.000329532
0.000115119
-0.000114837
-0.000359345
-0.000615054
-0.00088048
-0.00115064
-0.00142358
-0.00521349
-0.00562729
-0.00586825
-0.00593843
-0.00613896
-0.00614041
-0.00654963
-0.00847583
-0.0108111
-0.012575
-0.0134384
-0.0133046
-0.0123361
-0.0107787
-0.00884678
-0.00675553
-0.00458269
-0.00253798
-0.000713965
0.000785788
0.00180078
0.00240422
0.00264662
0.00263815
0.00248298
0.00225298
0.00199571
0.001741
0.00150259
0.00128865
0.00109942
0.000935685
0.000793606
0.000668755
0.000551398
0.000436879
0.000322089
0.000212299
0.000114541
2.93004e-05
-0.00540427
-0.00570903
-0.00595356
-0.00593911
-0.00600165
-0.00644875
-0.00739344
-0.00943793
-0.0116482
-0.013307
-0.0140399
-0.0138127
-0.0127265
-0.0110861
-0.00910818
-0.0070084
-0.00482183
-0.0027587
-0.000923807
0.000609599
0.001655
0.00227508
0.00253903
0.00254761
0.00240723
0.00219074
0.00194571
0.00170061
0.00146961
0.00126104
0.00107625
0.0009162
0.00077735
0.000654147
0.000537494
0.000421934
0.000307735
0.000199235
0.000106204
2.93362e-05
-0.00562123
-0.00597881
-0.00588049
-0.00613312
-0.00609332
-0.00687249
-0.0084487
-0.0106732
-0.0128153
-0.0143992
-0.0150009
-0.0146086
-0.0133419
-0.0115841
-0.00954287
-0.00741494
-0.00524808
-0.00317169
-0.00131032
0.000263617
0.00135073
0.00199859
0.00229301
0.00233226
0.00222164
0.00203333
0.00181457
0.00159293
0.00138296
0.00119205
0.00102083
0.000871088
0.000738966
0.000620911
0.000510925
0.000404204
0.00030285
0.000206003
0.000117554
3.748e-05
-0.00530474
-0.00566868
-0.00566809
-0.00572465
-0.00590784
-0.00737027
-0.00944649
-0.0117194
-0.0138456
-0.015433
-0.0159484
-0.0154158
-0.0139882
-0.0121023
-0.0100023
-0.00787481
-0.00572459
-0.00364242
-0.00176561
-0.00018107
0.000942024
0.00161724
0.00194413
0.00202484
0.00195842
0.00181377
0.00163546
0.00144877
0.00126834
0.00110168
0.000950813
0.000815846
0.00069455
0.000584167
0.000481115
0.000382102
0.000286979
0.00019585
0.000111638
3.59233e-05
-0.00544816
-0.00594525
-0.00546019
-0.00565318
-0.00556893
-0.0075106
-0.0099624
-0.0124179
-0.0146453
-0.0163085
-0.0168287
-0.0161885
-0.0145915
-0.0125939
-0.0104458
-0.00830274
-0.00617564
-0.00410438
-0.00223088
-0.000661895
0.00048113
0.00117605
0.00153055
0.00165473
0.00163959
0.00154684
0.00141682
0.00127247
0.00112781
0.000989836
0.000862128
0.000744556
0.000636403
0.000536433
0.000442735
0.000353329
0.000267071
0.00018447
0.000107027
3.51757e-05
-0.00446373
-0.0049596
-0.00449563
-0.00458433
-0.00498608
-0.00731415
-0.0101459
-0.012724
-0.0149894
-0.0166622
-0.0171839
-0.0165269
-0.0149011
-0.0128797
-0.0107501
-0.0086251
-0.00652125
-0.00448253
-0.00263853
-0.00111264
1.15772e-05
0.000715208
0.00110161
0.00127552
0.00131597
0.0012775
0.00119696
0.00109556
0.000986368
0.000876613
0.000771236
0.000672115
0.000578776
0.000490439
0.000406003
0.000324957
0.000246917
0.000171251
0.00010016
3.29408e-05
-0.004707
-0.00596203
-0.00509476
-0.00449763
-0.00441562
-0.00683648
-0.00982724
-0.0125188
-0.0148298
-0.0164897
-0.0170578
-0.0163822
-0.0148077
-0.0128613
-0.0108156
-0.00875037
-0.00669415
-0.0047126
-0.00293657
-0.00148161
-0.000409956
0.000275453
0.000682302
0.000906293
0.00100642
0.00102334
0.000989663
0.000927436
0.000849647
0.000765512
0.000680047
0.000597734
0.000517398
0.000439503
0.000363747
0.000291058
0.000222147
0.000155084
9.13472e-05
3.03457e-05
-0.00529237
-0.00476978
-0.00348581
-0.00334756
-0.00419563
-0.00632771
-0.009232
-0.0118478
-0.0140456
-0.0155456
-0.0160802
-0.0155817
-0.0142103
-0.012465
-0.0105871
-0.00864158
-0.00667879
-0.00479108
-0.00312224
-0.00177031
-0.00077103
-0.000107552
0.00031018
0.00056657
0.000712404
0.000778143
0.000788796
0.000764535
0.000715851
0.000654254
0.000586044
0.000518909
0.000452191
0.000385647
0.00032035
0.000256927
0.000197061
0.000138482
8.20169e-05
2.74592e-05
-0.0040147
-0.00448347
-0.00462019
-0.00444362
-0.00404089
-0.00591803
-0.00865968
-0.0110208
-0.012958
-0.0142764
-0.0148093
-0.0144815
-0.0133539
-0.011814
-0.0101065
-0.00830151
-0.00646758
-0.00473371
-0.0032202
-0.00199511
-0.00108197
-0.000445874
-1.38847e-05
0.000271157
0.000448902
0.000546579
0.000587001
0.000591105
0.000570034
0.000532394
0.000483409
0.000431505
0.000378691
0.000324959
0.000271202
0.000218099
0.000167524
0.000118261
7.04062e-05
2.39139e-05
-0.00342337
-0.00392963
-0.00396828
-0.00395552
-0.00454922
-0.00607484
-0.00824623
-0.0102656
-0.0119333
-0.0130502
-0.0134862
-0.0132069
-0.0122743
-0.0109185
-0.00935392
-0.00770998
-0.00607208
-0.00455447
-0.00324613
-0.00217305
-0.00134424
-0.000738857
-0.000308066
-7.70204e-06
0.000195188
0.000321645
0.000389372
0.000417135
0.000416971
0.000399359
0.000370444
0.000336282
0.000299642
0.000259641
0.000218468
0.000177363
0.000136708
9.70157e-05
5.76676e-05
1.93838e-05
-0.00310976
-0.00360871
-0.00396955
-0.00442524
-0.00498549
-0.00606643
-0.00770303
-0.00931397
-0.010631
-0.0114881
-0.0118266
-0.0116421
-0.0108875
-0.00973531
-0.0084031
-0.00700863
-0.00563445
-0.00436429
-0.00325386
-0.00231954
-0.00156974
-0.000995395
-0.000568489
-0.000262792
-5.04648e-05
9.19632e-05
0.000181903
0.000236142
0.000262386
0.000268153
0.00025867
0.000241304
0.000219421
0.000193364
0.00016546
0.000136345
0.000106547
7.68894e-05
4.57121e-05
1.56824e-05
-0.00284625
-0.00334444
-0.00381342
-0.00429983
-0.00488926
-0.00576286
-0.00697825
-0.00822383
-0.00925449
-0.00994699
-0.0102511
-0.0101277
-0.0095505
-0.00863317
-0.00754251
-0.00639198
-0.00526042
-0.00420137
-0.003251
-0.00242843
-0.00174808
-0.00121498
-0.000805918
-0.000496043
-0.000267403
-0.000105642
2.39002e-06
7.40065e-05
0.000118383
0.000144215
0.000154005
0.000153396
0.000146207
0.000132582
0.00011659
9.72586e-05
7.64327e-05
5.45354e-05
3.19998e-05
1.05935e-05
-0.00267357
-0.00314418
-0.00364507
-0.00415717
-0.00474685
-0.00547989
-0.00639567
-0.0073494
-0.0081568
-0.0087013
-0.0089372
-0.00884823
-0.00840754
-0.00768692
-0.00681586
-0.00588049
-0.00494063
-0.004046
-0.00322739
-0.00250403
-0.00189026
-0.00139485
-0.00100597
-0.000703753
-0.000470215
-0.000293119
-0.000163216
-7.13849e-05
-9.88538e-06
3.15149e-05
5.64277e-05
6.98749e-05
7.52685e-05
7.40735e-05
6.99005e-05
6.11318e-05
4.95202e-05
3.65414e-05
2.1857e-05
7.31996e-06
-0.00253389
-0.0029803
-0.00347329
-0.00398448
-0.00454185
-0.00517144
-0.00588545
-0.00661902
-0.00724391
-0.00766769
-0.00785807
-0.00779819
-0.00747032
-0.00691173
-0.00621278
-0.00544675
-0.00466295
-0.00390273
-0.0031972
-0.00256427
-0.00201444
-0.00155495
-0.00118051
-0.00088158
-0.000645998
-0.000463773
-0.000325741
-0.000221469
-0.000144223
-8.69456e-05
-4.65289e-05
-1.85676e-05
3.79659e-07
1.14744e-05
1.74171e-05
1.90005e-05
1.71534e-05
1.35739e-05
8.68537e-06
2.64313e-06
-0.00242553
-0.00284284
-0.00330674
-0.00379432
-0.00430999
-0.0048605
-0.00543848
-0.00601491
-0.00650961
-0.00685249
-0.00700725
-0.00696542
-0.00671179
-0.00626954
-0.00570525
-0.00507534
-0.00441958
-0.00377295
-0.00316362
-0.00260677
-0.00211072
-0.00168539
-0.00133312
-0.00104607
-0.000812808
-0.000623878
-0.00047351
-0.000355768
-0.000265242
-0.000194533
-0.000140546
-9.95544e-05
-6.80182e-05
-4.50752e-05
-2.77412e-05
-1.60647e-05
-9.04072e-06
-4.02571e-06
-1.55494e-06
-6.27701e-07
-0.00232589
-0.00271736
-0.00314625
-0.00360137
-0.00407595
-0.00456208
-0.0050445
-0.00550693
-0.00590157
-0.00617863
-0.00630941
-0.00627984
-0.00608273
-0.00573365
-0.00527448
-0.00475266
-0.0042051
-0.00365797
-0.00313003
-0.0026379
-0.00219432
-0.00180545
-0.00147248
-0.00119277
-0.000960785
-0.000769115
-0.000611145
-0.000482472
-0.000379244
-0.000295827
-0.00022842
-0.000174743
-0.000132179
-9.89895e-05
-7.22009e-05
-5.13307e-05
-3.52655e-05
-2.22659e-05
-1.22334e-05
-4.11851e-06
-0.00223405
-0.00260166
-0.00299751
-0.00341892
-0.00385289
-0.00428418
-0.00469554
-0.00507486
-0.0053963
-0.00562441
-0.00573529
-0.00571774
-0.00556297
-0.00528298
-0.00490971
-0.00447923
-0.00401965
-0.00355253
-0.00309683
-0.0026653
-0.00226634
-0.00190853
-0.00159623
-0.00132811
-0.0010992
-0.00090444
-0.000739415
-0.000601489
-0.000487654
-0.000393673
-0.00031546
-0.000250632
-0.000196979
-0.000152991
-0.000116786
-8.67356e-05
-6.22531e-05
-4.1646e-05
-2.34459e-05
-7.84351e-06
-0.00214837
-0.00249468
-0.00286165
-0.00324959
-0.00364421
-0.00402881
-0.0043866
-0.0047057
-0.00497132
-0.00516167
-0.00525748
-0.00524735
-0.00512538
-0.00490181
-0.00459814
-0.00424098
-0.00385584
-0.00346019
-0.00306678
-0.00268744
-0.00233127
-0.00200473
-0.0017114
-0.00145214
-0.00122577
-0.00102963
-0.000859613
-0.000713474
-0.00058915
-0.00048351
-0.000393415
-0.000316895
-0.000252321
-0.000197924
-0.000152021
-0.000113769
-8.17365e-05
-5.43226e-05
-3.0973e-05
-1.02891e-05
-0.00206922
-0.00239656
-0.00273764
-0.00309419
-0.00345348
-0.00379814
-0.00411299
-0.00438785
-0.00461173
-0.00477267
-0.00485542
-0.00485136
-0.00475594
-0.00457588
-0.00432918
-0.00403643
-0.00371489
-0.00337921
-0.00304179
-0.00271146
-0.00239348
-0.00209368
-0.00181795
-0.0015691
-0.00134679
-0.00114927
-0.000973727
-0.000819131
-0.00068485
-0.000569236
-0.000469201
-0.000382983
-0.000309091
-0.000245978
-0.000192177
-0.00014585
-0.000105965
-7.15476e-05
-4.07102e-05
-1.34543e-05
-0.00199661
-0.00230701
-0.00262551
-0.00295404
-0.00328162
-0.00359228
-0.00387254
-0.00411323
-0.0043069
-0.00444386
-0.00451578
-0.00451538
-0.00443995
-0.00429615
-0.00409717
-0.00385768
-0.00359175
-0.00331122
-0.0030243
-0.00273638
-0.00245326
-0.00218087
-0.00192308
-0.0016827
-0.0014619
-0.00126183
-0.00108109
-0.000918915
-0.00077511
-0.000648834
-0.000537964
-0.000440785
-0.000356068
-0.0002829
-0.000220248
-0.000167119
-0.000121543
-8.18719e-05
-4.65385e-05
-1.51629e-05
-0.00193049
-0.00222611
-0.00252504
-0.0028287
-0.00312839
-0.0034101
-0.00366131
-0.00387419
-0.00404305
-0.00416195
-0.00422514
-0.00422725
-0.00416791
-0.00405352
-0.00389402
-0.00370129
-0.00348604
-0.00325524
-0.00301408
-0.00276746
-0.00251818
-0.0022697
-0.00202665
-0.00179354
-0.00157415
-0.00137126
-0.00118479
-0.00101449
-0.00086056
-0.000723582
-0.000602512
-0.000496001
-0.000402683
-0.000321189
-0.000250904
-0.000190382
-0.000138271
-9.32277e-05
-5.3362e-05
-1.76675e-05
-0.00187107
-0.00215402
-0.00243611
-0.0027184
-0.00299406
-0.00325092
-0.00347798
-0.00366801
-0.00381671
-0.00391994
-0.00397448
-0.00397799
-0.00393142
-0.00384064
-0.00371522
-0.00356415
-0.00339402
-0.00320995
-0.00301464
-0.00280805
-0.00258989
-0.00236298
-0.00213269
-0.00190515
-0.00168574
-0.00147849
-0.00128467
-0.00110524
-0.000941027
-0.000793063
-0.000660966
-0.000543805
-0.000440554
-0.000350596
-0.000273075
-0.000206422
-0.000149106
-9.9718e-05
-5.64737e-05
-1.82791e-05
-0.00181812
-0.00209068
-0.0023588
-0.00262298
-0.00287749
-0.0031122
-0.00331822
-0.00348929
-0.00362056
-0.00371039
-0.00375679
-0.0037595
-0.00372191
-0.00365098
-0.00355482
-0.00344116
-0.00331453
-0.0031766
-0.00302595
-0.00285877
-0.00267156
-0.00246522
-0.00224505
-0.0020194
-0.00179644
-0.00158272
-0.00138074
-0.00119182
-0.00101673
-0.00085713
-0.000713794
-0.000586094
-0.000473542
-0.000375484
-0.000291424
-0.000219349
-0.000157808
-0.000105027
-5.93747e-05
-1.93434e-05
-0.00177211
-0.00203634
-0.00229329
-0.00254272
-0.00277938
-0.00299483
-0.00318163
-0.00333492
-0.00345125
-0.00352854
-0.00356575
-0.00356555
-0.00353357
-0.00347789
-0.00340731
-0.00332962
-0.00324647
-0.00315453
-0.00304873
-0.00292046
-0.00276305
-0.00257564
-0.00236286
-0.00213617
-0.00190674
-0.00168315
-0.00146946
-0.00126823
-0.00108158
-0.000910657
-0.000756231
-0.000618864
-0.000498005
-0.000392736
-0.000302656
-0.000225729
-0.000160886
-0.000105673
-5.89032e-05
-1.85001e-05
-0.00173293
-0.00199136
-0.00223968
-0.00247732
-0.00269983
-0.00290022
-0.0030709
-0.00320796
-0.00330947
-0.00337418
-0.00340153
-0.00339592
-0.00336554
-0.00332088
-0.00327227
-0.00322817
-0.00319053
-0.00314929
-0.00308848
-0.00299371
-0.00285678
-0.00267845
-0.00246872
-0.00224066
-0.00200612
-0.00177358
-0.0015477
-0.00133336
-0.001133
-0.00095052
-0.000786785
-0.000641261
-0.000513209
-0.000401962
-0.000307338
-0.000226944
-0.000160031
-0.000103461
-5.67775e-05
-1.71362e-05
-0.00170159
-0.00195636
-0.00219874
-0.00242647
-0.00263565
-0.0028221
-0.00298114
-0.00310633
-0.0031954
-0.00324766
-0.00326403
-0.00325077
-0.00321844
-0.00318001
-0.00314965
-0.00313733
-0.00314575
-0.0031624
-0.00315203
-0.00308622
-0.00295607
-0.00276935
-0.00254544
-0.00230362
-0.00205583
-0.00181298
-0.00158026
-0.0013601
-0.00115467
-0.000966976
-0.000798096
-0.000648036
-0.000516211
-0.000402107
-0.00030515
-0.00022325
-0.000155563
-9.88219e-05
-5.31372e-05
-1.49178e-05
-0.00169172
-0.00194489
-0.0021831
-0.00240588
-0.00261005
-0.00279091
-0.00294311
-0.0030617
-0.0031443
-0.00318996
-0.00320034
-0.00318232
-0.00314729
-0.0031086
-0.00308057
-0.00307617
-0.00309812
-0.00312981
-0.00313744
-0.00308948
-0.00297413
-0.00279595
-0.0025738
-0.00232853
-0.00207556
-0.00182766
-0.00158968
-0.00136601
-0.00115819
-0.000968886
-0.000798633
-0.00064783
-0.000515269
-0.000401018
-0.000303381
-0.000221468
-0.000153383
-9.68272e-05
-5.16052e-05
-1.35444e-05
)
;

boundaryField
{
    inlet
    {
        type            zeroGradient;
    }
    outlet
    {
        type            fixedValue;
        value           uniform 0;
    }
    lowerWall
    {
        type            zeroGradient;
    }
    upperWall
    {
        type            zeroGradient;
    }
    defaultFaces
    {
        type            empty;
    }
}


// ************************************************************************* //
