/*--------------------------------*- C++ -*----------------------------------*\
| =========                 |                                                 |
| \\      /  F ield         | OpenFOAM: The Open Source CFD Toolbox           |
|  \\    /   O peration     | Version:  2112                                  |
|   \\  /    A nd           | Website:  www.openfoam.com                      |
|    \\/     M anipulation  |                                                 |
\*---------------------------------------------------------------------------*/
FoamFile
{
    version     2.0;
    format      ascii;
    arch        "LSB;label=32;scalar=64";
    class       surfaceScalarField;
    location    "0.5";
    object      phi;
}
// * * * * * * * * * * * * * * * * * * * * * * * * * * * * * * * * * * * * * //

dimensions      [0 3 -1 0 0 0 0];

oriented        oriented;

internalField   nonuniform List<scalar> 
3653
(
9.92362e-07
7.63835e-09
9.79157e-07
1.32042e-08
9.63672e-07
1.54859e-08
9.48155e-07
1.55169e-08
9.31799e-07
1.6356e-08
9.14641e-07
1.71578e-08
8.97551e-07
1.70895e-08
8.7873e-07
1.88218e-08
8.6118e-07
1.75493e-08
8.41735e-07
1.94452e-08
8.23044e-07
1.86908e-08
8.03634e-07
1.94105e-08
7.83616e-07
2.00178e-08
7.63127e-07
2.0489e-08
7.42548e-07
2.05793e-08
7.19848e-07
2.26996e-08
6.97277e-07
2.25714e-08
6.73164e-07
2.4113e-08
6.46587e-07
2.65769e-08
6.19305e-07
2.72817e-08
5.89106e-07
3.01994e-08
5.54311e-07
3.47946e-08
5.19495e-07
3.48159e-08
4.76149e-07
4.33457e-08
4.29926e-07
4.62236e-08
3.7605e-07
5.38754e-08
3.14617e-07
6.14336e-08
2.47158e-07
6.74583e-08
1.65534e-07
8.16244e-08
6.77167e-08
9.78174e-08
1.00241e-06
5.23186e-09
1.00572e-06
9.8911e-09
1.00808e-06
1.31302e-08
1.00994e-06
1.36545e-08
1.00992e-06
1.63741e-08
1.01196e-06
1.5116e-08
1.01019e-06
1.88618e-08
1.01111e-06
1.78962e-08
1.00862e-06
2.00414e-08
1.00779e-06
2.02778e-08
1.00354e-06
2.29381e-08
1.0028e-06
2.01565e-08
9.95419e-07
2.73956e-08
9.94466e-07
2.1442e-08
9.85797e-07
2.92487e-08
9.81189e-07
2.73069e-08
9.72401e-07
3.13594e-08
9.65164e-07
3.13499e-08
9.51364e-07
4.0377e-08
9.44335e-07
3.43106e-08
9.2424e-07
5.0295e-08
9.13003e-07
4.60315e-08
8.89213e-07
5.86061e-08
8.70949e-07
6.16095e-08
8.38461e-07
7.87113e-08
8.14776e-07
7.75603e-08
7.70061e-07
1.06149e-07
7.34409e-07
1.0311e-07
6.7772e-07
1.38314e-07
1.30008e-07
6.15429e-07
1.00162e-06
3.60934e-09
1.00453e-06
6.98304e-09
1.00737e-06
1.02898e-08
1.01003e-06
1.09923e-08
1.01088e-06
1.55227e-08
1.01432e-06
1.16837e-08
1.01389e-06
1.92919e-08
1.01745e-06
1.43298e-08
1.01696e-06
2.05367e-08
1.01921e-06
1.80218e-08
1.01862e-06
2.35364e-08
1.02072e-06
1.80545e-08
1.01808e-06
3.00324e-08
1.02081e-06
1.87154e-08
1.01713e-06
3.29237e-08
1.01743e-06
2.70134e-08
1.01507e-06
3.37106e-08
1.01213e-06
3.42917e-08
1.00811e-06
4.43955e-08
1.00588e-06
3.65413e-08
9.97123e-07
5.9056e-08
9.9432e-07
4.88344e-08
9.83027e-07
6.98987e-08
9.7648e-07
6.8157e-08
9.63219e-07
9.19718e-08
9.5264e-07
8.81397e-08
9.36136e-07
1.22653e-07
9.18429e-07
1.20817e-07
8.98899e-07
1.57844e-07
1.6404e-07
8.64866e-07
1.00042e-06
3.18857e-09
1.00308e-06
4.31907e-09
1.0039e-06
9.47218e-09
1.00716e-06
7.73697e-09
1.00751e-06
1.51748e-08
1.01036e-06
8.82687e-09
1.01087e-06
1.87855e-08
1.01322e-06
1.19801e-08
1.0139e-06
1.98546e-08
1.01586e-06
1.60656e-08
1.01647e-06
2.2919e-08
1.01768e-06
1.6847e-08
1.01832e-06
2.93963e-08
1.01858e-06
1.84526e-08
1.01871e-06
3.27964e-08
1.01884e-06
2.68833e-08
1.01773e-06
3.48228e-08
1.01716e-06
3.48553e-08
1.01599e-06
4.55658e-08
1.01308e-06
3.94501e-08
1.01235e-06
5.97909e-08
1.0084e-06
5.27782e-08
1.00558e-06
7.27259e-08
1.00134e-06
7.23987e-08
9.99012e-07
9.42951e-08
9.90711e-07
9.64407e-08
9.90522e-07
1.22841e-07
9.80824e-07
1.30515e-07
9.77907e-07
1.60761e-07
1.76018e-07
9.65929e-07
1.0001e-06
3.08712e-09
1.00187e-06
2.54704e-09
1.00271e-06
8.63136e-09
1.00528e-06
5.16851e-09
1.00608e-06
1.43733e-08
1.00859e-06
6.32458e-09
1.00932e-06
1.80503e-08
1.01155e-06
9.75467e-09
1.01231e-06
1.90925e-08
1.01423e-06
1.41424e-08
1.01504e-06
2.21079e-08
1.01622e-06
1.56712e-08
1.01738e-06
2.82307e-08
1.01747e-06
1.83699e-08
1.01843e-06
3.18306e-08
1.01873e-06
2.65824e-08
1.01806e-06
3.54924e-08
1.01883e-06
3.40877e-08
1.01765e-06
4.67503e-08
1.01679e-06
4.03122e-08
1.01648e-06
6.00986e-08
1.01479e-06
5.44652e-08
1.01333e-06
7.41827e-08
1.01216e-06
7.35705e-08
1.01076e-06
9.57003e-08
1.00926e-06
9.79383e-08
1.00898e-06
1.23125e-07
1.00844e-06
1.31047e-07
1.00928e-06
1.59921e-07
1.73569e-07
1.01173e-06
1.00022e-06
2.86947e-09
1.00142e-06
1.34336e-09
1.00249e-06
7.55889e-09
1.00386e-06
3.80381e-09
1.00574e-06
1.249e-08
1.00668e-06
5.38522e-09
1.00878e-06
1.59553e-08
1.00975e-06
8.78213e-09
1.01149e-06
1.73521e-08
1.01266e-06
1.29762e-08
1.01445e-06
2.03174e-08
1.01488e-06
1.52364e-08
1.01716e-06
2.5949e-08
1.01684e-06
1.86918e-08
1.0187e-06
2.99724e-08
1.01887e-06
2.64155e-08
1.01952e-06
3.48411e-08
1.01981e-06
3.37907e-08
1.02069e-06
4.58718e-08
1.01948e-06
4.15252e-08
1.02119e-06
5.83848e-08
1.01986e-06
5.57997e-08
1.02082e-06
7.32194e-08
1.02027e-06
7.41254e-08
1.02199e-06
9.39732e-08
1.02147e-06
9.84616e-08
1.02432e-06
1.20272e-07
1.02652e-06
1.2885e-07
1.03096e-06
1.55479e-07
1.68785e-07
1.03575e-06
1.00024e-06
2.62761e-09
1.00105e-06
5.3388e-10
1.00197e-06
6.63834e-09
1.00309e-06
2.6854e-09
1.00488e-06
1.06998e-08
1.00581e-06
4.45563e-09
1.00804e-06
1.37248e-08
1.00898e-06
7.84377e-09
1.01093e-06
1.53977e-08
1.01217e-06
1.17369e-08
1.01399e-06
1.85027e-08
1.0149e-06
1.43212e-08
1.01705e-06
2.38002e-08
1.01749e-06
1.82483e-08
1.01927e-06
2.81994e-08
1.02028e-06
2.54042e-08
1.02111e-06
3.40053e-08
1.02234e-06
3.25689e-08
1.02349e-06
4.47196e-08
1.02377e-06
4.12395e-08
1.02555e-06
5.66072e-08
1.02614e-06
5.52152e-08
1.02767e-06
7.16835e-08
1.02907e-06
7.27248e-08
1.0314e-06
9.16465e-08
1.03383e-06
9.60269e-08
1.03765e-06
1.16458e-07
1.04229e-06
1.24205e-07
1.04874e-06
1.49034e-07
1.60164e-07
1.05736e-06
1.0004e-06
2.22533e-09
1.00073e-06
2.04071e-10
1.00204e-06
5.32931e-09
1.00257e-06
2.16013e-09
1.00472e-06
8.54306e-09
1.00522e-06
3.95651e-09
1.00774e-06
1.12067e-08
1.00856e-06
7.02096e-09
1.01079e-06
1.31694e-08
1.01197e-06
1.05583e-08
1.01417e-06
1.62982e-08
1.01511e-06
1.3385e-08
1.01767e-06
2.1238e-08
1.01837e-06
1.75522e-08
1.02069e-06
2.58831e-08
1.02186e-06
2.4231e-08
1.02372e-06
3.21407e-08
1.02495e-06
3.13393e-08
1.02739e-06
4.22803e-08
1.02809e-06
4.05458e-08
1.03106e-06
5.36352e-08
1.03233e-06
5.39458e-08
1.03554e-06
6.8467e-08
1.03755e-06
7.07142e-08
1.04203e-06
8.717e-08
1.04532e-06
9.27336e-08
1.05116e-06
1.10617e-07
1.05695e-06
1.18423e-07
1.06577e-06
1.40209e-07
1.51393e-07
1.07454e-06
1.00048e-06
1.74513e-09
1.00065e-06
3.21277e-11
1.00192e-06
4.06506e-09
1.00238e-06
1.69449e-09
1.00446e-06
6.46833e-09
1.00507e-06
3.34326e-09
1.00755e-06
8.7295e-09
1.00857e-06
5.9964e-09
1.01086e-06
1.08825e-08
1.01229e-06
9.12543e-09
1.01458e-06
1.40057e-08
1.0159e-06
1.20646e-08
1.01857e-06
1.85688e-08
1.01979e-06
1.63355e-08
1.02234e-06
2.33309e-08
1.02405e-06
2.25219e-08
1.0264e-06
2.97899e-08
1.02825e-06
2.9492e-08
1.0312e-06
3.93317e-08
1.03292e-06
3.88269e-08
1.0364e-06
5.01559e-08
1.03879e-06
5.15487e-08
1.04292e-06
6.43374e-08
1.04622e-06
6.74159e-08
1.05151e-06
8.18814e-08
1.05645e-06
8.77959e-08
1.06343e-06
1.03631e-07
1.0707e-06
1.11156e-07
1.08061e-06
1.30302e-07
1.40439e-07
1.09156e-06
1.0005e-06
1.24482e-09
1.00058e-06
-4.46452e-11
1.00193e-06
2.71455e-09
1.0024e-06
1.22694e-09
1.00445e-06
4.41182e-09
1.00521e-06
2.58007e-09
1.00764e-06
6.3081e-09
1.00887e-06
4.76697e-09
1.01126e-06
8.48508e-09
1.01284e-06
7.55316e-09
1.01537e-06
1.14692e-08
1.01693e-06
1.0506e-08
1.01984e-06
1.56544e-08
1.02145e-06
1.47338e-08
1.0244e-06
2.03818e-08
1.02643e-06
2.04835e-08
1.02947e-06
2.6754e-08
1.03167e-06
2.72907e-08
1.03538e-06
3.56214e-08
1.03776e-06
3.64474e-08
1.04201e-06
4.59096e-08
1.04519e-06
4.83658e-08
1.05034e-06
5.91844e-08
1.05449e-06
6.32686e-08
1.06089e-06
7.54862e-08
1.06692e-06
8.17581e-08
1.07506e-06
9.54942e-08
1.08322e-06
1.02999e-07
1.09444e-06
1.1908e-07
1.29064e-07
1.10581e-06
1.00051e-06
7.39714e-10
1.00063e-06
-1.69948e-10
1.00192e-06
1.42592e-09
1.00258e-06
5.66751e-10
1.00451e-06
2.47813e-09
1.00558e-06
1.51123e-09
1.0079e-06
3.99043e-09
1.00943e-06
3.24069e-09
1.01187e-06
6.0401e-09
1.0137e-06
5.7191e-09
1.01638e-06
8.79423e-09
1.01829e-06
8.59445e-09
1.02135e-06
1.25949e-08
1.02343e-06
1.26542e-08
1.02662e-06
1.71888e-08
1.02915e-06
1.79539e-08
1.03259e-06
2.33183e-08
1.03538e-06
2.44961e-08
1.03954e-06
3.14689e-08
1.0427e-06
3.32872e-08
1.04748e-06
4.1123e-08
1.05152e-06
4.43274e-08
1.0573e-06
5.34044e-08
1.06252e-06
5.80448e-08
1.06959e-06
6.8425e-08
1.07662e-06
7.47199e-08
1.08557e-06
8.65527e-08
1.09478e-06
9.37831e-08
1.10649e-06
1.07375e-07
1.1656e-07
1.11899e-06
1.00046e-06
2.7828e-10
1.00071e-06
-4.14797e-10
1.00199e-06
1.4458e-10
1.00288e-06
-3.27769e-10
1.00477e-06
5.91744e-10
1.00614e-06
1.35781e-10
1.00842e-06
1.71723e-09
1.01021e-06
1.44567e-09
1.01274e-06
3.51148e-09
1.01481e-06
3.65328e-09
1.01764e-06
5.95707e-09
1.01988e-06
6.35451e-09
1.02311e-06
9.37254e-09
1.02562e-06
1.01408e-08
1.02908e-06
1.37317e-08
1.03203e-06
1.49984e-08
1.03588e-06
1.94739e-08
1.03919e-06
2.11841e-08
1.04377e-06
2.6884e-08
1.04763e-06
2.94311e-08
1.0529e-06
3.58561e-08
1.0577e-06
3.95271e-08
1.06406e-06
4.70417e-08
1.07013e-06
5.19708e-08
1.0778e-06
6.07588e-08
1.08564e-06
6.68754e-08
1.09531e-06
7.68913e-08
1.1052e-06
8.38934e-08
1.11748e-06
9.50866e-08
1.03719e-07
1.13032e-06
1.00043e-06
-1.48043e-10
1.00089e-06
-8.75066e-10
1.00216e-06
-1.12639e-09
1.00337e-06
-1.53917e-09
1.00526e-06
-1.29686e-09
1.00693e-06
-1.53928e-09
1.00922e-06
-5.72657e-10
1.01126e-06
-5.90713e-10
1.01389e-06
8.82862e-10
1.01621e-06
1.33354e-09
1.01918e-06
2.98468e-09
1.02178e-06
3.75879e-09
1.02512e-06
6.02837e-09
1.02807e-06
7.18994e-09
1.03173e-06
1.00706e-08
1.03513e-06
1.16015e-08
1.03929e-06
1.53165e-08
1.04313e-06
1.73443e-08
1.04805e-06
2.1955e-08
1.05256e-06
2.4929e-08
1.05821e-06
3.02003e-08
1.06372e-06
3.40174e-08
1.0705e-06
4.02641e-08
1.07733e-06
4.51434e-08
1.08552e-06
5.25691e-08
1.09402e-06
5.83766e-08
1.10413e-06
6.67735e-08
1.11466e-06
7.33694e-08
1.12716e-06
8.25856e-08
9.02699e-08
1.14061e-06
1.00039e-06
-5.37397e-10
1.00104e-06
-1.52868e-09
1.0024e-06
-2.48234e-09
1.0039e-06
-3.03707e-09
1.00589e-06
-3.28584e-09
1.00783e-06
-3.47953e-09
1.01022e-06
-2.96578e-09
1.01249e-06
-2.86519e-09
1.01525e-06
-1.87767e-09
1.01784e-06
-1.25584e-09
1.02098e-06
-1.49065e-10
1.02393e-06
8.07745e-10
1.02742e-06
2.54046e-09
1.03076e-06
3.84519e-09
1.03465e-06
6.1803e-09
1.03844e-06
7.81422e-09
1.0429e-06
1.08529e-08
1.04722e-06
1.30282e-08
1.05245e-06
1.67252e-08
1.05753e-06
1.98486e-08
1.06353e-06
2.41949e-08
1.06965e-06
2.7906e-08
1.07681e-06
3.30979e-08
1.08421e-06
3.77405e-08
1.09282e-06
4.39671e-08
1.10184e-06
4.93486e-08
1.11233e-06
5.6283e-08
1.12337e-06
6.23374e-08
1.13611e-06
6.9841e-08
7.68504e-08
1.14953e-06
1.00045e-06
-9.9015e-10
1.00143e-06
-2.50875e-09
1.00302e-06
-4.06508e-09
1.00487e-06
-4.88839e-09
1.00703e-06
-5.44815e-09
1.00924e-06
-5.68603e-09
1.01175e-06
-5.47759e-09
1.01424e-06
-5.35758e-09
1.01713e-06
-4.77055e-09
1.01999e-06
-4.10996e-09
1.02321e-06
-3.37133e-09
1.02647e-06
-2.44873e-09
1.0301e-06
-1.09119e-09
1.03374e-06
1.99512e-10
1.03785e-06
2.07521e-09
1.04197e-06
3.68963e-09
1.0467e-06
6.12238e-09
1.05144e-06
8.28934e-09
1.05693e-06
1.12378e-08
1.06249e-06
1.42848e-08
1.06881e-06
1.78811e-08
1.07543e-06
2.12877e-08
1.08292e-06
2.56067e-08
1.09079e-06
2.98717e-08
1.09974e-06
3.50134e-08
1.10921e-06
3.98795e-08
1.11991e-06
4.55824e-08
1.13121e-06
5.10312e-08
1.14396e-06
5.70971e-08
6.28965e-08
1.15791e-06
1.0005e-06
-1.48851e-09
1.00187e-06
-3.87809e-09
1.00384e-06
-6.03737e-09
1.00608e-06
-7.12671e-09
1.00847e-06
-7.84168e-09
1.01091e-06
-8.12656e-09
1.01358e-06
-8.14631e-09
1.01631e-06
-8.08261e-09
1.01937e-06
-7.83574e-09
1.0225e-06
-7.24258e-09
1.02593e-06
-6.79985e-09
1.02948e-06
-5.99334e-09
1.03329e-06
-4.90498e-09
1.03727e-06
-3.77474e-09
1.0416e-06
-2.25733e-09
1.04604e-06
-7.55848e-10
1.05104e-06
1.12752e-09
1.05615e-06
3.18147e-09
1.06185e-06
5.53296e-09
1.06782e-06
8.31674e-09
1.07444e-06
1.12554e-08
1.08148e-06
1.42486e-08
1.08925e-06
1.78381e-08
1.09746e-06
2.16651e-08
1.10666e-06
2.58159e-08
1.11646e-06
3.00768e-08
1.12736e-06
3.46775e-08
1.13902e-06
3.93703e-08
1.15182e-06
4.43005e-08
4.93557e-08
1.16536e-06
1.0009e-06
-2.38424e-09
1.0029e-06
-5.88107e-09
1.00534e-06
-8.47432e-09
1.0079e-06
-9.69441e-09
1.01049e-06
-1.04314e-08
1.01316e-06
-1.07936e-08
1.01603e-06
-1.10157e-08
1.01904e-06
-1.10884e-08
1.02229e-06
-1.1095e-08
1.02569e-06
-1.06401e-08
1.0293e-06
-1.04048e-08
1.03306e-06
-9.7516e-09
1.03701e-06
-8.85618e-09
1.04118e-06
-7.94947e-09
1.0457e-06
-6.7715e-09
1.05037e-06
-5.42557e-09
1.05554e-06
-4.04926e-09
1.06096e-06
-2.23235e-09
1.06679e-06
-3.01808e-10
1.07305e-06
2.05606e-09
1.07993e-06
4.37339e-09
1.08731e-06
6.87354e-09
1.0953e-06
9.84446e-09
1.10379e-06
1.31798e-08
1.11313e-06
1.64708e-08
1.12315e-06
2.00539e-08
1.13412e-06
2.37149e-08
1.14595e-06
2.75389e-08
1.15888e-06
3.13663e-08
3.53154e-08
1.17292e-06
1.00183e-06
-4.21683e-09
1.00526e-06
-9.30752e-09
1.00853e-06
-1.17463e-08
1.01147e-06
-1.26308e-08
1.01427e-06
-1.32304e-08
1.01722e-06
-1.37443e-08
1.02035e-06
-1.4149e-08
1.02357e-06
-1.43088e-08
1.02686e-06
-1.43869e-08
1.03026e-06
-1.40422e-08
1.03376e-06
-1.38965e-08
1.03735e-06
-1.33457e-08
1.04112e-06
-1.26296e-08
1.04513e-06
-1.19513e-08
1.04946e-06
-1.11012e-08
1.05401e-06
-9.98298e-09
1.05895e-06
-8.98315e-09
1.06418e-06
-7.46942e-09
1.06984e-06
-5.96147e-09
1.07599e-06
-4.09066e-09
1.08275e-06
-2.38571e-09
1.09004e-06
-4.12933e-10
1.09787e-06
2.00665e-09
1.1063e-06
4.74965e-09
1.11558e-06
7.19839e-09
1.12569e-06
9.9372e-09
1.13674e-06
1.26668e-08
1.14867e-06
1.56067e-08
1.16147e-06
1.85712e-08
2.17346e-08
1.17505e-06
1.00301e-06
-7.22854e-09
1.00686e-06
-1.31584e-08
1.00974e-06
-1.46209e-08
1.01186e-06
-1.4757e-08
1.01376e-06
-1.51246e-08
1.01552e-06
-1.55098e-08
1.01708e-06
-1.57089e-08
1.01845e-06
-1.56781e-08
1.0196e-06
-1.55309e-08
1.02068e-06
-1.5126e-08
1.02157e-06
-1.47897e-08
1.02247e-06
-1.42408e-08
1.02354e-06
-1.37029e-08
1.02475e-06
-1.31577e-08
1.02609e-06
-1.24432e-08
1.02771e-06
-1.16016e-08
1.02964e-06
-1.09103e-08
1.03204e-06
-9.87253e-09
1.03483e-06
-8.75217e-09
1.03825e-06
-7.51057e-09
1.04227e-06
-6.40827e-09
1.04698e-06
-5.12053e-09
1.05258e-06
-3.59566e-09
1.05918e-06
-1.8499e-09
1.06662e-06
-2.42009e-10
1.07517e-06
1.38976e-09
1.08485e-06
2.98403e-09
1.09583e-06
4.62543e-09
1.10808e-06
6.32501e-09
8.01366e-09
1.1218e-06
9.92771e-07
9.79613e-07
9.64992e-07
9.50235e-07
9.35111e-07
9.19601e-07
9.03892e-07
8.88214e-07
8.72683e-07
8.57557e-07
8.42767e-07
8.28526e-07
8.14824e-07
8.01666e-07
7.89223e-07
7.77621e-07
7.66711e-07
7.56838e-07
7.48086e-07
7.40576e-07
7.34167e-07
7.29047e-07
7.25451e-07
7.23601e-07
7.23359e-07
7.24749e-07
7.27733e-07
7.32358e-07
7.38683e-07
7.46697e-07
2.23739e-07
-1.25922e-07
3.16079e-07
-9.23399e-08
4.03268e-07
-8.71888e-08
4.69832e-07
-6.65644e-08
5.29189e-07
-5.93567e-08
5.82029e-07
-5.28399e-08
6.28463e-07
-4.64336e-08
6.94936e-07
-6.64731e-08
7.45585e-07
-5.06497e-08
-1.37973e-07
8.83558e-07
6.71907e-07
-1.824e-07
7.19043e-07
-1.39476e-07
7.65111e-07
-1.33256e-07
8.06077e-07
-1.07531e-07
8.40423e-07
-9.37025e-08
8.70069e-07
-8.24861e-08
9.03562e-07
-7.99269e-08
9.44958e-07
-1.07869e-07
9.98778e-07
-1.04469e-07
-1.78481e-07
1.03929e-06
8.76052e-07
-1.93586e-07
8.94173e-07
-1.57597e-07
8.9632e-07
-1.35404e-07
9.19343e-07
-1.30554e-07
9.29945e-07
-1.04304e-07
9.63507e-07
-1.16048e-07
9.68888e-07
-8.53085e-08
1.00222e-06
-1.41199e-07
1.02478e-06
-1.27032e-07
-2.16606e-07
1.06291e-06
9.58373e-07
-1.8603e-07
9.64756e-07
-1.6398e-07
9.67731e-07
-1.38379e-07
9.71465e-07
-1.34288e-07
9.81178e-07
-1.14017e-07
9.98072e-07
-1.32941e-07
1.016e-06
-1.0324e-07
1.02093e-06
-1.46127e-07
1.03624e-06
-1.42342e-07
-2.25602e-07
1.04524e-06
9.98846e-07
-1.73142e-07
9.99795e-07
-1.6493e-07
9.97864e-07
-1.36447e-07
1.00348e-06
-1.399e-07
1.00433e-06
-1.14875e-07
1.0133e-06
-1.41905e-07
1.025e-06
-1.14943e-07
1.03356e-06
-1.54686e-07
1.04287e-06
-1.51657e-07
-2.25353e-07
1.04263e-06
1.02765e-06
-1.65042e-07
1.02175e-06
-1.59032e-07
1.02058e-06
-1.35283e-07
1.02132e-06
-1.40632e-07
1.02661e-06
-1.20172e-07
1.02831e-06
-1.43601e-07
1.03923e-06
-1.25865e-07
1.03927e-06
-1.54723e-07
1.04628e-06
-1.58672e-07
-2.17038e-07
1.03797e-06
1.04749e-06
-1.55177e-07
1.04244e-06
-1.53976e-07
1.04e-06
-1.32844e-07
1.03964e-06
-1.40274e-07
1.04075e-06
-1.21283e-07
1.03856e-06
-1.41412e-07
1.04426e-06
-1.31559e-07
1.04507e-06
-1.55539e-07
1.04662e-06
-1.60213e-07
-2.07243e-07
1.03682e-06
1.06705e-06
-1.47682e-07
1.05978e-06
-1.46706e-07
1.05622e-06
-1.29283e-07
1.05205e-06
-1.36108e-07
1.05344e-06
-1.22669e-07
1.04992e-06
-1.37897e-07
1.05143e-06
-1.33069e-07
1.04874e-06
-1.52842e-07
1.04669e-06
-1.5817e-07
-1.96193e-07
1.03564e-06
1.0828e-06
-1.38923e-07
1.07496e-06
-1.38861e-07
1.07033e-06
-1.24655e-07
1.06517e-06
-1.30947e-07
1.06298e-06
-1.20481e-07
1.05788e-06
-1.32797e-07
1.05568e-06
-1.30872e-07
1.05106e-06
-1.48215e-07
1.0461e-06
-1.53208e-07
-1.85315e-07
1.03522e-06
1.09707e-06
-1.3018e-07
1.08825e-06
-1.30035e-07
1.08227e-06
-1.18679e-07
1.07507e-06
-1.2375e-07
1.07107e-06
-1.1648e-07
1.06488e-06
-1.26608e-07
1.05989e-06
-1.25884e-07
1.05285e-06
-1.41171e-07
1.04591e-06
-1.46271e-07
-1.73161e-07
1.03376e-06
1.10941e-06
-1.20604e-07
1.09979e-06
-1.2041e-07
1.09238e-06
-1.11268e-07
1.08428e-06
-1.1565e-07
1.07808e-06
-1.10279e-07
1.07025e-06
-1.18779e-07
1.06294e-06
-1.18575e-07
1.05423e-06
-1.32464e-07
1.04545e-06
-1.37481e-07
-1.59732e-07
1.03202e-06
1.12008e-06
-1.10358e-07
1.10969e-06
-1.10026e-07
1.10113e-06
-1.02706e-07
1.0917e-06
-1.06221e-07
1.08371e-06
-1.02291e-07
1.07458e-06
-1.09649e-07
1.06584e-06
-1.0983e-07
1.05529e-06
-1.21921e-07
1.04453e-06
-1.26714e-07
-1.45462e-07
1.03026e-06
1.12958e-06
-9.93314e-08
1.11845e-06
-9.88993e-08
1.10871e-06
-9.29654e-08
1.09832e-06
-9.58271e-08
1.08888e-06
-9.2848e-08
1.07833e-06
-9.9104e-08
1.06807e-06
-9.95694e-08
1.05618e-06
-1.10032e-07
1.04404e-06
-1.1457e-07
-1.30228e-07
1.02881e-06
1.13783e-06
-8.76312e-08
1.12599e-06
-8.70588e-08
1.11525e-06
-8.22272e-08
1.10384e-06
-8.4411e-08
1.0932e-06
-8.22086e-08
1.08153e-06
-8.74408e-08
1.07005e-06
-8.809e-08
1.05693e-06
-9.69118e-08
1.0435e-06
-1.01142e-07
-1.14181e-07
1.02746e-06
1.14549e-06
-7.52053e-08
1.13294e-06
-7.45148e-08
1.12132e-06
-7.0602e-08
1.10906e-06
-7.21557e-08
1.09735e-06
-7.04965e-08
1.08462e-06
-7.47091e-08
1.07208e-06
-7.55525e-08
1.05798e-06
-8.28071e-08
1.0434e-06
-8.65687e-08
-9.72249e-08
1.02645e-06
1.15237e-06
-6.22113e-08
1.13913e-06
-6.12723e-08
1.12668e-06
-5.81611e-08
1.11363e-06
-5.91044e-08
1.10108e-06
-5.79464e-08
1.08751e-06
-6.11342e-08
1.07399e-06
-6.20308e-08
1.05892e-06
-6.77364e-08
1.04341e-06
-7.10596e-08
-7.95295e-08
1.02571e-06
1.15903e-06
-4.83187e-08
1.1449e-06
-4.71456e-08
1.13154e-06
-4.4793e-08
1.11756e-06
-4.51315e-08
1.10405e-06
-4.44332e-08
1.08946e-06
-4.65471e-08
1.07491e-06
-4.74731e-08
1.05875e-06
-5.15821e-08
1.0421e-06
-5.44062e-08
-6.06421e-08
1.02321e-06
1.1595e-06
-3.2765e-08
1.14377e-06
-3.14161e-08
1.12878e-06
-2.98086e-08
1.1133e-06
-2.96525e-08
1.09819e-06
-2.93211e-08
1.08201e-06
-3.03709e-08
1.06576e-06
-3.12214e-08
1.04792e-06
-3.37356e-08
1.02951e-06
-3.59951e-08
-4.00238e-08
1.00889e-06
1.10297e-06
-1.39362e-08
1.08473e-06
-1.31743e-08
1.06723e-06
-1.23095e-08
1.04971e-06
-1.21313e-08
1.03248e-06
-1.20884e-08
1.01467e-06
-1.25602e-08
9.96668e-07
-1.32237e-08
9.77341e-07
-1.44082e-08
9.57109e-07
-1.57631e-08
-1.75305e-08
9.34616e-07
7.32761e-07
7.19587e-07
7.07277e-07
6.95146e-07
6.83057e-07
6.70497e-07
6.57274e-07
6.42865e-07
6.27102e-07
6.09572e-07
1.38148e-07
-1.38148e-07
1.77874e-07
-3.97269e-08
1.54707e-07
2.31679e-08
1.63277e-07
-8.57065e-09
1.40157e-07
2.31205e-08
-8.2433e-08
2.2259e-07
-3.80618e-07
2.98185e-07
-6.08033e-07
2.27414e-07
-7.76537e-07
1.68504e-07
-8.81366e-07
1.04829e-07
-9.30813e-07
4.94467e-08
-9.30828e-07
1.5672e-11
-8.9486e-07
-3.59678e-08
-8.32228e-07
-6.26324e-08
-7.49189e-07
-8.30387e-08
-6.48824e-07
-1.00365e-07
-5.37128e-07
-1.11696e-07
-4.13571e-07
-1.23558e-07
-2.78574e-07
-1.34996e-07
-1.42739e-07
-1.35835e-07
-1.7384e-08
-1.25355e-07
9.69977e-08
-1.14382e-07
1.94288e-07
-9.72904e-08
2.74261e-07
-7.99725e-08
3.37109e-07
-6.28488e-08
3.84341e-07
-4.72316e-08
4.17162e-07
-3.28213e-08
4.37399e-07
-2.02363e-08
4.46865e-07
-9.46608e-09
4.48479e-07
-1.6146e-09
4.44324e-07
4.15508e-09
4.36465e-07
7.8595e-09
4.24751e-07
1.17136e-08
4.09964e-07
1.47871e-08
3.91138e-07
1.88266e-08
3.70442e-07
2.06957e-08
3.48035e-07
2.24064e-08
3.28129e-07
1.99064e-08
3.0925e-07
1.88785e-08
1.34228e-08
1.07335e-07
-2.45482e-07
1.43412e-07
-7.5804e-08
1.75621e-07
-9.04083e-09
6.53719e-08
1.01678e-07
-1.69081e-07
2.57574e-07
-4.18289e-07
4.71797e-07
-5.96794e-07
4.7669e-07
-7.38337e-07
3.68957e-07
-8.42217e-07
2.72385e-07
-9.02586e-07
1.65197e-07
-9.16063e-07
6.29243e-08
-8.90522e-07
-2.55255e-08
-8.34623e-07
-9.1867e-08
-7.54859e-07
-1.42396e-07
-6.64397e-07
-1.73501e-07
-5.57418e-07
-2.07344e-07
-4.36516e-07
-2.32598e-07
-3.06625e-07
-2.53449e-07
-1.68998e-07
-2.72623e-07
-3.43801e-08
-2.70453e-07
9.5652e-08
-2.55387e-07
2.11943e-07
-2.30672e-07
3.12087e-07
-1.97435e-07
3.96149e-07
-1.64035e-07
4.65157e-07
-1.31857e-07
5.2125e-07
-1.03324e-07
5.65956e-07
-7.75276e-08
6.0082e-07
-5.51004e-08
6.26454e-07
-3.51001e-08
6.4452e-07
-1.96808e-08
6.56108e-07
-7.43297e-09
6.64039e-07
-7.13139e-11
6.68266e-07
7.48669e-09
6.71596e-07
1.14566e-08
6.72407e-07
1.80159e-08
6.73275e-07
1.98279e-08
6.71238e-07
2.4443e-08
6.68139e-07
2.30062e-08
6.62403e-07
2.46138e-08
2.21427e-08
3.74936e-08
-2.82976e-07
1.10654e-08
-4.93758e-08
6.5527e-09
-4.52811e-09
-1.13718e-07
2.21949e-07
-2.82484e-07
4.2634e-07
-4.33819e-07
6.23133e-07
-5.37184e-07
5.80056e-07
-6.18155e-07
4.49927e-07
-6.80051e-07
3.34281e-07
-7.11903e-07
1.97049e-07
-7.08327e-07
5.93477e-08
-6.67681e-07
-6.61716e-08
-6.06097e-07
-1.53451e-07
-5.25838e-07
-2.22655e-07
-4.35605e-07
-2.63733e-07
-3.41491e-07
-3.01459e-07
-2.3226e-07
-3.41828e-07
-1.14581e-07
-3.71129e-07
4.78175e-09
-3.91985e-07
1.23834e-07
-3.89506e-07
2.35602e-07
-3.67156e-07
3.34197e-07
-3.29267e-07
4.17744e-07
-2.80981e-07
4.86067e-07
-2.32358e-07
5.4069e-07
-1.86479e-07
5.83849e-07
-1.46483e-07
6.1846e-07
-1.12138e-07
6.46846e-07
-8.34868e-08
6.69572e-07
-5.78257e-08
6.87112e-07
-3.72207e-08
6.99699e-07
-2.00202e-08
7.10155e-07
-1.0527e-08
7.18638e-07
-9.96374e-10
7.27269e-07
2.82557e-09
7.34895e-07
1.03893e-08
7.41973e-07
1.27504e-08
7.49521e-07
1.68947e-08
7.55013e-07
1.75139e-08
7.62093e-07
1.75341e-08
1.86967e-08
-1.04851e-08
-2.72491e-07
-4.56791e-08
-1.41818e-08
-8.8311e-08
3.81038e-08
-1.8287e-07
3.16508e-07
-2.86658e-07
5.30128e-07
-3.65653e-07
7.02127e-07
-4.04619e-07
6.19022e-07
-4.46084e-07
4.91392e-07
-4.79782e-07
3.67978e-07
-4.95178e-07
2.12446e-07
-4.81891e-07
4.60605e-08
-4.36787e-07
-1.11276e-07
-3.68385e-07
-2.21852e-07
-2.91519e-07
-2.99522e-07
-2.05501e-07
-3.49751e-07
-1.14521e-07
-3.92439e-07
-1.93197e-08
-4.37029e-07
8.1144e-08
-4.71593e-07
1.84273e-07
-4.95114e-07
2.84967e-07
-4.902e-07
3.74592e-07
-4.5678e-07
4.50971e-07
-4.05647e-07
5.15125e-07
-3.45135e-07
5.67393e-07
-2.84627e-07
6.0919e-07
-2.28276e-07
6.41106e-07
-1.78399e-07
6.6477e-07
-1.35803e-07
6.83291e-07
-1.02007e-07
6.98762e-07
-7.32965e-08
7.11488e-07
-4.99463e-08
7.20214e-07
-2.87469e-08
7.26791e-07
-1.71041e-08
7.3323e-07
-7.43538e-09
7.40671e-07
-4.61463e-09
7.50009e-07
1.05084e-09
7.5764e-07
5.11914e-09
7.65709e-07
8.82625e-09
7.70829e-07
1.23934e-08
7.76452e-07
1.19119e-08
1.3148e-08
-1.0978e-07
-1.62711e-07
-1.90692e-07
6.67307e-08
-1.73067e-07
2.0478e-08
-1.79817e-07
3.23259e-07
-1.81867e-07
5.32177e-07
-1.89176e-07
7.09436e-07
-1.99577e-07
6.29424e-07
-2.15818e-07
5.07633e-07
-2.3e-07
3.8216e-07
-2.31486e-07
2.13933e-07
-2.11458e-07
2.60318e-08
-1.69129e-07
-1.53604e-07
-1.06536e-07
-2.84446e-07
-3.72021e-08
-3.68855e-07
3.72331e-08
-4.24187e-07
1.16379e-07
-4.71584e-07
1.98393e-07
-5.19044e-07
2.83691e-07
-5.5689e-07
3.66151e-07
-5.77574e-07
4.4417e-07
-5.68219e-07
5.08433e-07
-5.21043e-07
5.55638e-07
-4.52851e-07
5.91381e-07
-3.80878e-07
6.20079e-07
-3.13325e-07
6.44704e-07
-2.52901e-07
6.66099e-07
-1.99795e-07
6.83239e-07
-1.52942e-07
6.95515e-07
-1.14283e-07
7.05791e-07
-8.35731e-08
7.15477e-07
-5.96323e-08
7.24133e-07
-3.74029e-08
7.29292e-07
-2.2263e-08
7.33372e-07
-1.15154e-08
7.37316e-07
-8.55833e-09
7.44942e-07
-6.5754e-09
7.53912e-07
-3.85053e-09
7.62324e-07
4.14169e-10
7.6896e-07
5.75689e-09
7.7162e-07
9.25213e-09
1.07023e-08
-1.66204e-07
3.49307e-09
-1.81582e-07
8.21081e-08
-1.09242e-07
-5.18619e-08
-7.73084e-08
2.91326e-07
-4.65189e-08
5.01388e-07
-1.29865e-08
6.75904e-07
1.88161e-08
5.97621e-07
3.85975e-08
4.87851e-07
5.52389e-08
3.65519e-07
7.63994e-08
1.92772e-07
1.08348e-07
-5.91722e-09
1.43446e-07
-1.88702e-07
1.83283e-07
-3.24283e-07
2.27444e-07
-4.13017e-07
2.80459e-07
-4.77202e-07
3.41923e-07
-5.33047e-07
4.08635e-07
-5.85756e-07
4.75815e-07
-6.2407e-07
5.34155e-07
-6.35914e-07
5.82595e-07
-6.16659e-07
6.2103e-07
-5.59478e-07
6.44719e-07
-4.76541e-07
6.55648e-07
-3.91807e-07
6.60931e-07
-3.18608e-07
6.65643e-07
-2.57612e-07
6.72335e-07
-2.06487e-07
6.82098e-07
-1.62705e-07
6.91026e-07
-1.2321e-07
6.99105e-07
-9.16529e-08
7.06585e-07
-6.71116e-08
7.16583e-07
-4.74014e-08
7.25029e-07
-3.07092e-08
7.31389e-07
-1.78748e-08
7.34825e-07
-1.19945e-08
7.37931e-07
-9.68144e-09
7.45018e-07
-1.09372e-08
7.51981e-07
-6.54932e-09
7.6077e-07
-3.03183e-09
7.64823e-07
5.19922e-09
1.03971e-08
-1.83251e-07
1.86744e-07
-1.43683e-07
4.25398e-08
-1.59234e-07
-3.63112e-08
5.88187e-08
7.32732e-08
1.75916e-07
3.8429e-07
2.61663e-07
5.90157e-07
2.99997e-07
5.59287e-07
3.27348e-07
4.605e-07
3.64056e-07
3.2881e-07
3.99842e-07
1.56986e-07
4.28479e-07
-3.4554e-08
4.52132e-07
-2.12354e-07
4.71517e-07
-3.43668e-07
4.93011e-07
-4.34511e-07
5.22659e-07
-5.06849e-07
5.65075e-07
-5.75464e-07
6.13277e-07
-6.33958e-07
6.54566e-07
-6.65359e-07
6.81447e-07
-6.62795e-07
6.92736e-07
-6.27948e-07
6.96046e-07
-5.62788e-07
6.96415e-07
-4.76909e-07
6.92387e-07
-3.87779e-07
6.85781e-07
-3.12002e-07
6.80597e-07
-2.52429e-07
6.77739e-07
-2.03629e-07
6.79847e-07
-1.64814e-07
6.84812e-07
-1.28175e-07
6.92024e-07
-9.88644e-08
6.98836e-07
-7.39241e-08
7.08711e-07
-5.72766e-08
7.20429e-07
-4.24272e-08
7.31172e-07
-2.86169e-08
7.3928e-07
-2.01029e-08
7.41536e-07
-1.19373e-08
7.44806e-07
-1.42078e-08
7.47272e-07
-9.0146e-09
7.52804e-07
-8.56376e-09
7.58637e-07
-6.34062e-10
8.66275e-09
6.90463e-07
3.79839e-07
4.67217e-07
2.65786e-07
2.42484e-07
1.88422e-07
1.81467e-07
1.3429e-07
3.11169e-07
2.54589e-07
4.81373e-07
4.19953e-07
5.92326e-07
4.48334e-07
6.60965e-07
3.91861e-07
7.11468e-07
2.78307e-07
7.45e-07
1.23454e-07
7.61953e-07
-5.15073e-08
7.64782e-07
-2.15183e-07
7.63402e-07
-3.42289e-07
7.6854e-07
-4.39649e-07
7.84322e-07
-5.22632e-07
8.10019e-07
-6.01161e-07
8.38336e-07
-6.62274e-07
8.53749e-07
-6.80773e-07
8.44796e-07
-6.53842e-07
8.17289e-07
-6.00441e-07
7.85244e-07
-5.30743e-07
7.59724e-07
-4.51389e-07
7.43487e-07
-3.71542e-07
7.33402e-07
-3.01917e-07
7.28107e-07
-2.47134e-07
7.26192e-07
-2.01714e-07
7.28241e-07
-1.66863e-07
7.32695e-07
-1.32629e-07
7.38687e-07
-1.04857e-07
7.44556e-07
-7.97929e-08
7.51757e-07
-6.44771e-08
7.62698e-07
-5.33686e-08
7.74769e-07
-4.06883e-08
7.86336e-07
-3.1669e-08
7.92642e-07
-1.82437e-08
7.94486e-07
-1.60518e-08
7.94347e-07
-8.87578e-09
7.93898e-07
-8.11433e-09
7.96097e-07
-2.83379e-09
5.61898e-09
1.01007e-06
4.09056e-07
9.58703e-07
3.17152e-07
8.60634e-07
2.86491e-07
7.12106e-07
2.82818e-07
6.36714e-07
3.2998e-07
6.7677e-07
3.79897e-07
7.5611e-07
3.68993e-07
8.30352e-07
3.1762e-07
8.92295e-07
2.16364e-07
9.37433e-07
7.83168e-08
9.57719e-07
-7.17935e-08
9.61062e-07
-2.18526e-07
9.63508e-07
-3.44735e-07
9.73074e-07
-4.49215e-07
9.87429e-07
-5.36986e-07
9.96454e-07
-6.10187e-07
9.89642e-07
-6.55462e-07
9.67553e-07
-6.58685e-07
9.27677e-07
-6.13966e-07
8.7236e-07
-5.45124e-07
8.19408e-07
-4.77791e-07
7.81382e-07
-4.13363e-07
7.60106e-07
-3.50266e-07
7.51816e-07
-2.93626e-07
7.50554e-07
-2.45872e-07
7.51356e-07
-2.02516e-07
7.54096e-07
-1.69603e-07
7.60686e-07
-1.39219e-07
7.69148e-07
-1.13319e-07
7.75921e-07
-8.65661e-08
7.79933e-07
-6.84889e-08
7.84206e-07
-5.7642e-08
7.91113e-07
-4.75951e-08
7.98088e-07
-3.86437e-08
8.04068e-07
-2.42244e-08
8.06128e-07
-1.81119e-08
8.06168e-07
-8.9156e-09
8.06016e-07
-7.96259e-09
8.06011e-07
-2.82863e-09
3.59749e-09
1.09228e-06
3.79683e-07
1.07439e-06
3.35041e-07
1.04319e-06
3.17694e-07
1.02555e-06
3.00457e-07
1.01682e-06
3.38709e-07
1.027e-06
3.69718e-07
1.05412e-06
3.41871e-07
1.09235e-06
2.79391e-07
1.13223e-06
1.76484e-07
1.16147e-06
4.90765e-08
1.1769e-06
-8.72282e-08
1.17975e-06
-2.21367e-07
1.17914e-06
-3.44126e-07
1.17615e-06
-4.46232e-07
1.16331e-06
-5.2414e-07
1.1356e-06
-5.8248e-07
1.08673e-06
-6.06585e-07
1.01912e-06
-5.91074e-07
9.5185e-07
-5.467e-07
8.93593e-07
-4.86867e-07
8.45437e-07
-4.29634e-07
8.13269e-07
-3.81196e-07
7.9643e-07
-3.33427e-07
7.89749e-07
-2.86946e-07
7.89963e-07
-2.46086e-07
7.91589e-07
-2.04142e-07
7.90328e-07
-1.68343e-07
7.88944e-07
-1.37834e-07
7.92939e-07
-1.17314e-07
7.9976e-07
-9.33867e-08
8.04775e-07
-7.35042e-08
8.05754e-07
-5.86208e-08
8.05986e-07
-4.78273e-08
8.07727e-07
-4.03842e-08
8.07858e-07
-2.43557e-08
8.06839e-07
-1.7093e-08
8.04928e-07
-7.0049e-09
8.03649e-07
-6.68316e-09
8.08569e-07
-7.74856e-09
-1.86977e-09
1.0857e-06
3.39216e-07
1.09958e-06
3.21164e-07
1.11407e-06
3.03207e-07
1.1232e-06
2.91329e-07
1.15705e-06
3.04855e-07
1.20609e-06
3.20672e-07
1.25006e-06
2.97902e-07
1.28655e-06
2.4291e-07
1.31696e-06
1.4607e-07
1.33875e-06
2.72885e-08
1.34451e-06
-9.29915e-08
1.33549e-06
-2.12346e-07
1.31435e-06
-3.22984e-07
1.28017e-06
-4.12057e-07
1.23135e-06
-4.75312e-07
1.16572e-06
-5.16857e-07
1.09224e-06
-5.33105e-07
1.01754e-06
-5.16371e-07