/*--------------------------------*- C++ -*----------------------------------*\
| =========                 |                                                 |
| \\      /  F ield         | OpenFOAM: The Open Source CFD Toolbox           |
|  \\    /   O peration     | Version:  2112                                  |
|   \\  /    A nd           | Website:  www.openfoam.com                      |
|    \\/     M anipulation  |                                                 |
\*---------------------------------------------------------------------------*/
FoamFile
{
    version     2.0;
    format      ascii;
    arch        "LSB;label=32;scalar=64";
    class       volScalarField;
    location    "0.45";
    object      nut;
}
// * * * * * * * * * * * * * * * * * * * * * * * * * * * * * * * * * * * * * //

dimensions      [0 2 -1 0 0 0 0];

internalField   nonuniform List<scalar> 
1880
(
3.44375e-11
3.75962e-12
6.05491e-13
4.28732e-14
2.16688e-14
1.0707e-13
5.74215e-15
3.15027e-15
2.13938e-15
3.2182e-15
2.68393e-14
1.73405e-14
7.55665e-14
1.93474e-14
4.30223e-15
1.24996e-13
1.31966e-13
2.70484e-13
2.22274e-13
2.01113e-13
1.3084e-12
1.92858e-12
4.13654e-12
5.72261e-12
2.16973e-11
8.11206e-11
8.8332e-11
2.7655e-10
4.33326e-11
4.84704e-10
6.96398e-09
6.86772e-09
1.03546e-09
2.02336e-10
8.92116e-11
1.0486e-11
1.99459e-11
2.01461e-12
3.00139e-11
5.13602e-12
7.27014e-11
1.1408e-11
4.11606e-11
4.77873e-11
4.85447e-11
8.89386e-11
6.60553e-11
1.5475e-11
9.42027e-11
4.06667e-11
4.08876e-11
2.92761e-10
2.08489e-10
2.39534e-10
1.14651e-09
4.53639e-10
1.13575e-09
1.25096e-09
1.37422e-09
1.42811e-09
3.93377e-09
1.43163e-09
1.51064e-10
1.73425e-09
9.09572e-11
1.89431e-09
9.81492e-10
2.89737e-09
1.32837e-10
4.93473e-09
8.81715e-10
3.05297e-09
3.69975e-09
3.39352e-09
1.45786e-09
7.14771e-09
4.66064e-10
1.67465e-09
4.7077e-09
9.18107e-11
4.58023e-09
5.18045e-09
4.99137e-10
8.35679e-09
5.968e-09
3.91869e-09
1.1667e-08
9.87018e-09
7.21927e-09
7.17538e-09
1.98753e-09
5.61227e-10
4.1465e-09
3.24063e-10
7.88614e-09
8.90946e-10
6.49474e-09
6.9593e-10
3.00434e-09
1.10184e-09
6.66448e-09
2.17195e-09
3.44842e-08
1.65432e-09
1.62066e-08
2.65892e-09
6.61417e-09
4.80099e-09
2.77039e-10
3.0712e-09
2.44287e-09
9.96221e-09
7.00577e-09
1.30475e-08
1.15137e-08
1.37901e-08
1.86696e-08
1.7826e-08
2.67512e-08
1.78926e-08
4.19067e-09
1.24272e-09
2.22388e-10
2.59161e-09
3.76825e-10
2.47089e-09
5.91492e-10
2.26635e-09
8.50619e-10
5.04435e-09
9.17772e-09
4.40481e-09
3.40302e-08
3.18526e-09
2.04827e-08
2.9069e-09
1.99369e-08
3.79458e-09
4.13405e-09
3.83123e-09
5.29251e-11
8.72696e-09
6.05349e-10
1.22894e-08
4.57938e-09
1.39837e-08
1.20788e-08
2.01462e-08
1.80355e-08
2.65583e-08
6.854e-11
2.68695e-10
9.56933e-11
3.75698e-10
2.41529e-10
6.84658e-10
3.50227e-10
3.03759e-10
6.36951e-10
4.35688e-11
8.34543e-11
2.23963e-09
3.34639e-09
3.26712e-09
4.83434e-10
2.17662e-09
2.18649e-09
5.13002e-09
2.04902e-09
6.19917e-09
4.04703e-09
7.73591e-09
4.87827e-09
9.48782e-09
8.22386e-09
1.32019e-08
1.33455e-08
1.6249e-08
1.97949e-08
2.00324e-08
1.23516e-10
6.35851e-11
2.40908e-10
6.57683e-10
2.6904e-10
7.16096e-10
6.59255e-10
2.65092e-10
1.43741e-09
1.02336e-11
1.64474e-09
8.08893e-10
1.8642e-09
1.38997e-09
1.8212e-09
1.43992e-09
3.0385e-09
2.58727e-09
3.55422e-09
3.86187e-09
4.65579e-09
6.55902e-09
5.94789e-09
8.72627e-09
9.48326e-09
1.08283e-08
1.27853e-08
1.47546e-08
1.71903e-08
1.98866e-08
1.88661e-10
7.98965e-11
5.24317e-10
3.69364e-11
9.14182e-10
5.22486e-10
1.54557e-09
1.82803e-09
2.48021e-09
9.95003e-10
2.70664e-09
2.74508e-09
3.14837e-09
2.7976e-09
3.06239e-09
2.55776e-09
4.11327e-09
3.84081e-09
4.83336e-09
4.40271e-09
5.97735e-09
6.60472e-09
7.39247e-09
8.39687e-09
1.04595e-08
1.11888e-08
1.37064e-08
1.38201e-08
1.81849e-08
1.76342e-08
2.05817e-11
1.89381e-12
7.32339e-10
6.95735e-11
1.46572e-09
7.08408e-10
2.38499e-09
2.58516e-09
3.0254e-09
1.26561e-09
3.01313e-09
1.96605e-09
3.29163e-09
2.34286e-09
3.20577e-09
2.89438e-09
4.35701e-09
3.80922e-09
5.02225e-09
4.70066e-09
5.96049e-09
6.67709e-09
7.62116e-09
8.2025e-09
1.02688e-08
1.08403e-08
1.29772e-08
1.36192e-08
1.63448e-08
1.74637e-08
1.0612e-10
5.31329e-11
8.64806e-10
4.79264e-10
1.94191e-09
1.34905e-09
2.73863e-09
2.98681e-09
2.98592e-09
1.73414e-09
3.05971e-09
2.51011e-09
3.58626e-09
2.94781e-09
3.60669e-09
3.45172e-09
4.68382e-09
4.33262e-09
5.37424e-09
5.14505e-09
6.40125e-09
6.98916e-09
8.09124e-09
8.44879e-09
1.04688e-08
1.09338e-08
1.29602e-08
1.32102e-08
1.60081e-08
1.64812e-08
7.84592e-11
8.71503e-11
1.00159e-09
9.40654e-10
1.95748e-09
1.8282e-09
2.56136e-09
3.08313e-09
2.58288e-09
1.96145e-09
2.81244e-09
2.58741e-09
3.32757e-09
3.30152e-09
3.67864e-09
3.89015e-09
4.59705e-09
4.58796e-09
5.38883e-09
5.45993e-09
6.41884e-09
7.1721e-09
8.15231e-09
8.48984e-09
1.02115e-08
1.08586e-08
1.24364e-08
1.30017e-08
1.50129e-08
1.59248e-08
2.98668e-10
3.35018e-10
1.17374e-09
1.24057e-09
2.00381e-09
1.8215e-09
2.56546e-09
2.58722e-09
2.69389e-09
2.21289e-09
2.98547e-09
2.76634e-09
3.68533e-09
3.41722e-09
4.02592e-09
3.97923e-09
4.87828e-09
4.78572e-09
5.61789e-09
5.72851e-09
6.74565e-09
7.28008e-09
8.32127e-09
8.59726e-09
1.01477e-08
1.0728e-08
1.22521e-08
1.2789e-08
1.45993e-08
1.53717e-08
2.06333e-10
3.73838e-10
1.10022e-09
1.37344e-09
1.72023e-09
1.97517e-09
2.14942e-09
2.5847e-09
2.4864e-09
2.41676e-09
2.96717e-09
3.01632e-09
3.45565e-09
3.77122e-09
3.99604e-09
4.22594e-09
4.66465e-09
5.03993e-09
5.70192e-09
5.94872e-09
6.74088e-09
7.50173e-09
8.24513e-09
8.64327e-09
9.86739e-09
1.06856e-08
1.19029e-08
1.25725e-08
1.39675e-08
1.48041e-08
8.07948e-11
3.38564e-10
1.20162e-09
1.27394e-09
1.82692e-09
1.90576e-09
2.26087e-09
2.44079e-09
2.61562e-09
2.70184e-09
3.10534e-09
3.13254e-09
3.78109e-09
3.80823e-09
4.25795e-09
4.37449e-09
4.93047e-09
5.2122e-09
5.87623e-09
6.17039e-09
7.05971e-09
7.54833e-09
8.33109e-09
8.73131e-09
9.86907e-09
1.06276e-08
1.17855e-08
1.24445e-08
1.37374e-08
1.44796e-08
1.18873e-11
1.3863e-10
5.6286e-10
1.17214e-09
1.4546e-09
1.91357e-09
1.94964e-09
2.38432e-09
2.42403e-09
2.54351e-09
2.96525e-09
3.10446e-09
3.43601e-09
3.88012e-09
4.18906e-09
4.39817e-09
4.75211e-09
5.30996e-09
5.85595e-09
6.17686e-09
6.90092e-09
7.67383e-09
8.18742e-09
8.65589e-09
9.62533e-09
1.05229e-08
1.14738e-08
1.21408e-08
1.31755e-08
1.39585e-08
6.82564e-11
7.70112e-10
1.32537e-09
1.41656e-09
1.61964e-09
1.8594e-09
1.99668e-09
2.28788e-09
2.43732e-09
2.81884e-09
3.01209e-09
3.14036e-09
3.56495e-09
3.88154e-09
4.19963e-09
4.53392e-09
4.86833e-09
5.3765e-09
5.87571e-09
6.30577e-09
7.09164e-09
7.6381e-09
8.20375e-09
8.76863e-09
9.62884e-09
1.04264e-08
1.13329e-08
1.20343e-08
1.3065e-08
1.38119e-08
2.42234e-12
8.34415e-12
1.14493e-10
8.06138e-10
1.2383e-09
1.31001e-09
1.22497e-09
1.56065e-09
1.60219e-09
2.00168e-09
2.46357e-09
2.80047e-09
2.94834e-09
3.75377e-09
4.02338e-09
4.32901e-09
4.6956e-09
5.36907e-09
5.77267e-09
6.1616e-09
6.79616e-09
7.53835e-09
7.96155e-09
8.47404e-09
9.28096e-09
1.00299e-08
1.0712e-08
1.13766e-08
1.2309e-08
1.31802e-08
2.11866e-09
2.45858e-09
1.62698e-09
1.58658e-09
1.98426e-09
2.3004e-09
3.12416e-09
3.47528e-09
3.33087e-09
2.87529e-09
1.88892e-09
1.43377e-09
6.221e-10
3.17022e-10
1.45404e-10
9.93471e-11
3.64414e-11
1.56775e-11
2.66653e-12
8.31659e-13
5.68048e-13
2.15981e-12
6.4007e-12
6.93017e-12
5.14179e-12
1.98687e-11
5.99058e-11
2.09819e-10
4.17569e-10
8.4911e-10
5.09608e-09
5.66079e-09
9.47412e-10
1.53896e-10
3.25182e-11
3.80077e-12
9.2342e-13
1.19358e-13
1.36367e-13
4.15195e-13
9.54402e-13
5.21725e-13
1.15293e-12
1.83155e-12
1.28392e-12
1.47217e-12
2.61159e-12
3.60498e-12
4.3783e-12
4.63286e-12
5.2826e-12
4.98701e-12
5.32087e-12
7.8663e-12
9.30473e-12
7.74155e-12
5.74887e-12
4.43866e-12
3.5057e-12
2.62871e-12
3.46437e-11
4.74812e-12
2.44558e-13
1.24261e-14
5.75318e-14
3.39961e-14
2.5036e-15
1.03698e-16
1.05897e-17
1.95782e-16
1.03068e-15
1.92595e-15
9.29612e-16
1.34489e-15
2.70044e-15
1.01637e-14
8.54006e-15
3.95338e-15
6.57584e-15
3.14281e-14
4.95082e-14
3.17927e-14
1.6534e-14
2.63827e-14
5.67738e-14
9.90628e-14
1.019e-13
5.76659e-14
1.58961e-14
1.39091e-15
4.94821e-09
1.0245e-09
3.64794e-10
2.13825e-10
1.37351e-11
5.84792e-11
2.36461e-11
1.37377e-10
4.74595e-10
2.0141e-09
4.48503e-09
1.04486e-08
3.79242e-09
1.76247e-08
7.87114e-09
3.962e-09
2.46523e-10
2.44037e-08
1.1902e-13
9.11582e-09
2.75526e-08
3.46234e-08
1.23908e-08
1.3548e-08
4.46991e-08
6.91813e-08
1.16566e-08
6.08701e-08
6.33683e-08
8.91191e-08
3.31856e-08
3.8074e-08
4.25221e-08
2.19115e-08
2.66714e-08
4.66042e-08
4.61704e-08
1.5205e-08
3.80886e-08
4.05906e-08
3.28515e-08
3.0314e-08
3.52329e-08
3.42684e-08
2.88763e-08
3.81907e-08
4.32576e-08
3.77728e-08
2.78203e-08
3.48098e-08
3.51683e-08
2.64291e-08
2.90601e-08
2.89376e-08
2.7474e-08
3.264e-08
3.68172e-08
3.76953e-08
3.03147e-08
3.14568e-08
2.67297e-08
2.37367e-08
2.6389e-08
2.87722e-08
2.78107e-08
2.77495e-08
3.2744e-08
3.48273e-08
2.83066e-08
2.73161e-08
2.78982e-08
2.2394e-08
2.49593e-08
2.56562e-08
2.659e-08
2.71609e-08
2.93997e-08
3.34132e-08
2.84412e-08
2.38287e-08
2.32951e-08
2.10579e-08
2.31026e-08
2.43379e-08
2.50318e-08
2.53726e-08
2.68959e-08
2.96448e-08
2.63692e-08
2.23001e-08
2.22749e-08
1.9804e-08
2.21431e-08
2.27121e-08
2.33007e-08
2.42785e-08
2.49842e-08
2.67387e-08
2.45743e-08
2.0892e-08
1.99025e-08
1.88326e-08
2.06707e-08
2.15762e-08
2.21262e-08
2.27146e-08
2.30395e-08
2.4348e-08
2.28192e-08
1.96223e-08
1.87825e-08
1.78803e-08
1.97498e-08
2.03975e-08
2.07086e-08
2.14962e-08
2.17925e-08
2.19977e-08
2.08819e-08
1.87397e-08
1.72069e-08
1.70445e-08
1.86429e-08
1.94715e-08
1.96708e-08
2.02009e-08
2.03714e-08
2.04164e-08
1.93829e-08
1.74953e-08
1.64712e-08
1.6389e-08
1.7785e-08
1.83983e-08
1.87213e-08
1.91016e-08
1.9129e-08
1.88011e-08
1.80976e-08
1.65975e-08
1.5344e-08
1.56716e-08
1.68893e-08
1.75994e-08
1.78021e-08
1.80833e-08
1.80101e-08
1.76696e-08
1.67956e-08
1.54872e-08
1.50219e-08
1.52078e-08
1.61893e-08
1.66602e-08
1.6997e-08
1.71477e-08
1.70549e-08
1.66705e-08
1.60862e-08
1.5009e-08
1.41184e-08
1.43441e-08
1.5289e-08
1.54977e-08
1.59461e-08
1.56281e-08
1.57825e-08
1.48288e-08
1.46274e-08
1.27788e-08
1.20559e-09
7.2277e-10
1.17918e-09
9.74652e-10
1.49841e-09
1.28715e-09
1.77563e-09
1.45798e-09
1.72895e-09
1.22819e-09
2.24159e-12
2.05054e-12
5.14112e-13
6.38538e-13
7.46431e-14
1.11533e-12
1.45685e-12
3.92644e-12
5.26405e-12
6.43635e-12
1.31158e-14
1.43577e-16
4.08072e-15
2.57825e-15
9.27863e-16
1.25736e-15
1.64312e-15
1.63728e-14
2.31011e-14
2.44852e-14
5.36751e-08
4.55411e-08
6.1551e-12
1.48819e-08
7.49604e-08
6.07398e-08
2.58794e-08
5.38798e-09
8.73283e-10
2.68524e-10
8.74748e-11
4.68921e-11
4.96311e-11
6.60096e-11
1.92958e-10
5.05985e-10
2.48492e-09
8.94358e-09
4.07076e-08
1.20259e-07
4.77927e-08
6.96011e-09
1.07039e-09
1.98398e-10
4.24215e-11
9.60371e-12
2.15711e-12
5.60479e-13
3.74598e-13
4.86944e-13
4.84986e-13
1.89052e-13
5.22926e-15
4.14994e-14
2.93862e-13
5.16066e-13
4.08856e-13
1.94035e-13
9.17761e-14
4.73856e-14
6.34791e-08
4.00653e-08
1.90361e-08
1.70544e-08
1.15956e-08
8.79092e-08
1.59871e-07
5.03006e-08
3.28435e-08
7.09254e-07
1.94884e-07
1.89038e-09
1.92363e-10
3.82042e-09
1.14146e-08
1.36226e-08
2.75223e-08
4.74328e-08
5.70483e-08
6.5205e-08
6.73107e-08
6.18648e-08
5.14817e-08
3.76403e-08
2.2637e-08
1.07296e-08
3.99088e-09
1.32843e-09
4.81203e-10
2.60297e-10
1.79236e-10
1.29926e-10
6.78361e-11
1.93777e-11
1.33618e-12
5.32396e-13
4.20549e-12
5.98369e-12
6.51575e-12
2.60263e-12
1.01465e-08
7.38556e-07
1.47988e-06
7.99441e-09
6.62765e-08
8.9092e-08
9.66804e-08
6.5152e-07
8.41102e-07
7.58784e-07
2.5441e-07
2.12216e-08
4.54639e-10
1.5597e-11
2.24411e-10
9.15052e-10
4.1447e-09
1.23707e-08
2.42657e-08
3.68026e-08
4.79357e-08
5.32805e-08
5.32265e-08
4.99417e-08
4.32794e-08
3.34041e-08
2.30763e-08
1.55685e-08
1.12081e-08
7.94612e-09
5.43991e-09
3.67026e-09
2.88158e-09
2.18333e-09
9.45465e-10
2.17685e-10
1.73352e-12
8.08871e-12
6.31081e-11
3.43585e-11
8.6284e-08
3.84973e-09
3.41304e-07
4.15883e-08
1.41717e-07
2.0735e-09
7.80018e-07
1.00561e-06
1.10321e-06
1.03936e-06
4.67456e-07
6.08978e-08
2.77284e-09
1.46051e-10
3.51402e-13
4.96113e-11
9.63024e-10
7.27275e-09
2.0707e-08
3.39618e-08
4.25296e-08
4.93744e-08
5.11618e-08
4.77039e-08
4.30041e-08
3.58077e-08
2.6535e-08
1.85485e-08
1.52239e-08
1.45004e-08
1.33926e-08
1.16056e-08
8.92097e-09
7.97736e-09
5.9496e-09
3.85483e-09
1.73751e-09
3.55502e-09
2.94748e-09
2.82825e-10
1.35468e-07
1.07066e-08
2.71483e-09
1.53549e-07
7.84451e-08
8.24842e-08
1.36528e-06
1.2028e-06
1.26534e-06
1.27919e-06
7.67228e-07
1.38107e-07
1.05048e-08
1.41408e-09
9.13408e-10
2.15556e-10
2.7176e-11
2.1651e-09
1.52133e-08
4.40264e-08
5.62219e-08
5.55601e-08
5.42888e-08
4.64843e-08
3.59232e-08
2.46257e-08
1.49675e-08
1.09041e-08
8.41957e-09
5.28686e-09
2.38481e-09
1.04514e-09
3.08949e-10
2.40432e-12
1.17325e-09
5.53312e-10
1.44948e-11
1.14689e-12
7.16552e-14
2.95468e-11
2.56216e-08
6.38456e-08
1.01019e-07
1.77802e-07
7.00015e-08
3.50363e-10
3.30608e-07
7.08093e-07
1.18456e-06
1.3735e-06
9.65513e-07
2.62395e-07
3.59208e-08
7.13764e-09
5.34065e-09
4.19328e-09
1.1974e-10
1.2508e-09
9.64518e-09
3.87967e-08
6.55895e-08
5.70225e-08
4.03308e-08
2.0074e-08
8.6938e-09
3.73779e-09
1.17764e-09
2.22871e-09
6.68781e-09
6.46919e-09
5.45376e-09
1.43507e-09
1.6139e-11
5.58083e-10
2.59442e-08
1.28736e-09
4.08113e-12
1.61607e-11
8.4112e-12
1.18884e-10
3.42445e-09
1.60568e-08
1.77366e-07
2.55124e-07
1.34148e-07
4.50929e-10
5.25304e-07
1.03412e-06
1.45246e-06
1.5641e-06
1.18863e-06
4.13371e-07
8.48285e-08
3.02437e-08
2.16965e-08
1.23225e-08
1.73467e-09
1.37625e-09
2.50311e-08
4.90024e-08
5.93189e-08
3.56096e-08
1.67562e-08
4.26612e-09
2.36035e-10
6.07348e-10
3.99204e-09
9.30937e-09
1.32108e-08
9.47271e-09
3.25632e-09
4.26292e-09
6.72226e-09
7.7997e-10
1.64783e-11
2.91393e-11
3.79025e-10
3.57728e-10
1.08863e-08
4.34252e-10
1.97104e-08
1.55147e-08
6.66437e-10
8.50837e-08
2.18168e-07
9.93569e-08
3.62118e-10
4.16435e-07
1.57154e-06
1.88709e-06
1.65316e-06
9.26297e-07
2.94803e-07
1.06202e-07
6.56313e-08
1.73187e-08
7.50283e-11
7.73741e-09
5.33077e-08
6.63175e-08
5.63825e-08
3.6369e-08
2.43318e-08
2.6139e-08
2.65164e-08
2.48507e-08
2.26212e-08
2.11451e-08
2.00172e-08
1.49448e-08
7.59838e-09
3.11015e-09
4.57857e-09
8.57616e-09
1.01957e-08
8.37868e-09
3.02653e-09
3.69846e-10
6.82375e-09
6.8492e-09
5.65903e-07
5.44297e-10
1.11304e-08
2.34109e-09
4.8698e-09
1.37127e-11
1.55227e-09
1.3374e-07
9.06342e-07
1.53292e-06
1.56181e-06
1.05866e-06
4.94873e-07
2.71205e-07
1.40758e-07
1.4499e-08
9.59388e-09
6.49459e-08
7.43918e-08
5.86228e-08
4.56244e-08
4.21605e-08
3.89695e-08
3.70761e-08
3.19758e-08
2.02151e-08
1.19888e-08
1.31702e-08
1.91334e-08
1.76949e-08
1.36904e-08
9.13196e-09
7.00311e-09
7.46486e-09
5.51662e-09
5.43068e-09
1.3383e-09
2.53847e-10
2.29773e-10
3.0992e-11
7.84718e-09
1.94116e-07
2.46724e-08
9.95576e-09
2.22e-09
3.22782e-09
5.73741e-08
3.85859e-07
1.02412e-06
1.42348e-06
1.44523e-06
1.14537e-06
6.38459e-07
3.53222e-07
3.76232e-08
2.02288e-08
6.51418e-08
4.87534e-08
4.65593e-08
5.64189e-08
4.79487e-08
3.90527e-08
3.24236e-08
2.91164e-08
3.11614e-08
2.89018e-08
1.98809e-08
1.07555e-08
1.30121e-08
8.86961e-09
5.16574e-10
2.93845e-12
1.36837e-09
5.68891e-11
1.32607e-09
8.16898e-09
5.03093e-09
3.38538e-10
3.43459e-08
2.71257e-09
3.47353e-08
2.56513e-08
1.62059e-08
2.32862e-08
3.49281e-09
8.44314e-10
1.58181e-07
7.3845e-07
1.00241e-06
1.07811e-06
1.0832e-06
8.88764e-07
2.00831e-07
6.31478e-09
5.49281e-08
7.74708e-08
6.78996e-08
5.43773e-08
4.63522e-08
4.06784e-08
3.50455e-08
3.51266e-08
3.52609e-08
3.02934e-08
2.42069e-08
1.56858e-08
7.49621e-10
2.16181e-10
2.38459e-09
1.70483e-10
6.68847e-08
7.84387e-09
5.56753e-12
5.55559e-10
4.57808e-09
2.78982e-09
4.17257e-10
3.02977e-10
4.53718e-09
7.20021e-09
4.0328e-08
3.08393e-08
3.12089e-08
3.30355e-08
5.36532e-08
4.10322e-08
2.33195e-08
1.476e-09
4.05152e-11
2.10044e-09
1.7429e-09
1.40926e-08
5.35156e-08
6.69958e-08
6.80119e-08
6.36251e-08
5.83249e-08
5.0673e-08
4.46127e-08
3.92773e-08
3.2291e-08
2.87139e-08
1.98126e-08
9.79999e-09
1.39039e-08
1.76951e-08
1.10582e-08
2.92579e-09
4.30537e-09
9.9688e-09
1.11015e-08
1.03765e-08
6.57293e-09
4.64298e-10
4.37922e-10
4.26101e-09
7.42326e-11
6.95845e-08
6.49603e-08
2.48325e-09
3.16168e-08
2.75871e-08
2.93111e-08
3.56015e-08
4.30416e-08
4.3344e-08
4.80631e-08
5.35048e-08
5.4423e-08
5.27001e-08
5.75803e-08
6.24676e-08
6.22051e-08
5.72914e-08
5.65128e-08
5.13558e-08
4.6888e-08
4.62834e-08
4.20409e-08
3.76535e-08
3.36913e-08
3.04878e-08
2.86918e-08
2.45682e-08
2.12544e-08
1.99269e-08
1.80292e-08
1.49358e-08
1.4104e-08
1.24111e-08
1.00644e-08
7.34864e-09
4.50177e-09
5.42604e-09
3.16937e-09
6.73585e-09
5.32953e-09
6.90669e-09
2.08952e-09
9.7168e-10
3.18289e-08
2.60315e-08
2.98362e-08
3.41846e-08
3.74859e-08
3.95825e-08
4.33356e-08
4.94565e-08
5.41777e-08
5.06307e-08
5.43681e-08
5.52368e-08
5.15313e-08
4.59994e-08
4.50072e-08
4.54541e-08
4.36606e-08
3.89557e-08
3.69332e-08
3.28366e-08
3.03063e-08
2.81374e-08
2.54959e-08
2.34408e-08
2.09852e-08
1.93317e-08
1.59648e-08
1.4919e-08
1.27665e-08
1.03834e-08
7.13403e-09
3.88451e-09
2.66942e-10
2.87274e-09
3.69327e-10
6.5539e-08
1.30777e-08
2.06919e-10
4.37458e-12
4.73488e-08
2.45439e-08
2.62482e-08
2.7609e-08
2.94547e-08
3.17486e-08
3.30943e-08
3.70455e-08
4.14704e-08
4.42009e-08
4.65783e-08
4.71885e-08
4.63808e-08
4.42835e-08
4.11178e-08
3.63628e-08
3.85566e-08
4.02038e-08
3.46556e-08
3.14778e-08
3.09859e-08
2.75276e-08
2.56822e-08
2.35911e-08
1.95198e-08
1.71747e-08
1.7804e-08
1.48789e-08
1.01329e-08
8.7651e-09
9.3876e-09
8.8148e-09
3.39858e-09
3.97503e-10
1.28086e-09
1.00443e-09
1.0621e-09
6.10811e-10
3.62441e-09
2.77639e-10
2.0882e-11
2.46069e-08
2.70199e-08
2.69135e-08
2.65865e-08
2.64977e-08
2.77121e-08
3.28127e-08
3.53879e-08
3.56802e-08
4.02189e-08
3.87111e-08
3.78053e-08
3.66899e-08
3.49324e-08
3.33483e-08
3.0737e-08
3.26339e-08
3.19047e-08
2.81367e-08
2.74967e-08
2.63988e-08
2.32395e-08
2.19793e-08
2.10256e-08
1.89769e-08
1.6944e-08
1.59233e-08
1.27997e-08
1.16625e-08
9.27275e-09
1.02444e-08
8.71858e-09
6.89452e-09
5.7789e-09
2.79502e-09
2.90961e-09
1.85758e-09
5.25609e-09
1.82258e-08
1.40636e-11
2.16798e-08
2.46385e-08
2.51643e-08
2.41037e-08
2.349e-08
2.46704e-08
2.89794e-08
3.23794e-08
3.15331e-08
3.29631e-08
3.24048e-08
3.14088e-08
3.0826e-08
2.99577e-08
3.00967e-08
2.84686e-08
2.53205e-08
2.76419e-08
2.79416e-08
2.43689e-08
2.35391e-08
2.28607e-08
2.07802e-08
1.95162e-08
1.89109e-08
1.63505e-08
1.43399e-08
1.34883e-08
1.28839e-08
1.06087e-08
7.94098e-09
7.31393e-09
5.91253e-09
3.51786e-09
3.77072e-09
2.06234e-10
2.11248e-12
2.13773e-10
9.06631e-10
1.4955e-08
2.01904e-08
2.26667e-08
2.28518e-08
2.20206e-08
2.12398e-08
2.19476e-08
2.49564e-08
2.80126e-08
2.89879e-08
2.7884e-08
2.74201e-08
2.58114e-08
2.57987e-08
2.58851e-08
2.53314e-08
2.52114e-08
2.41364e-08
2.17807e-08
2.3665e-08
2.30745e-08
2.12376e-08
2.07723e-08
2.06217e-08
1.84403e-08
1.69419e-08
1.62189e-08
1.51122e-08
1.26826e-08
1.1411e-08
9.94265e-09
8.07436e-09
6.96063e-09
6.1001e-09
4.39344e-09
5.26277e-09
4.27098e-09
2.15473e-09
1.12027e-09
1.8577e-09
2.53352e-11
1.90314e-08
2.02916e-08
2.04513e-08
1.97422e-08
1.93057e-08
2.00996e-08
2.16117e-08
2.31805e-08
2.43437e-08
2.39291e-08
2.35845e-08
2.28931e-08
2.16081e-08
2.21532e-08
2.18729e-08
2.08085e-08
2.19401e-08
2.15017e-08
1.95176e-08
2.05172e-08
2.15351e-08
2.01757e-08
1.90402e-08
1.84998e-08
1.74082e-08
1.57275e-08
1.48248e-08
1.32276e-08
1.15212e-08
9.98361e-09
9.39224e-09
8.25923e-09
7.21792e-09
5.18633e-09
3.85702e-09
3.88961e-09
3.2933e-09
3.62873e-09
2.62212e-09
2.26394e-09
1.72629e-08
1.82197e-08
1.8425e-08
1.77288e-08
1.72335e-08
1.78798e-08
1.90206e-08
1.96642e-08
2.01277e-08
2.05344e-08
1.96125e-08
1.95568e-08
1.96334e-08
1.83408e-08
1.84577e-08
1.88229e-08
1.78015e-08
1.8363e-08
1.91865e-08
1.86955e-08
1.88111e-08
1.91235e-08
1.83563e-08
1.73802e-08
1.68337e-08
1.55087e-08
1.37939e-08
1.24203e-08
1.16153e-08
1.01565e-08
8.59086e-09
6.77222e-09
6.10455e-09
5.30711e-09
5.07271e-09
3.96167e-09
3.147e-09
2.10579e-09
1.24535e-09
1.6837e-09
1.63396e-08
1.66403e-08
1.63618e-08
1.60195e-08
1.57376e-08
1.5691e-08
1.62911e-08
1.70395e-08
1.70206e-08
1.70176e-08
1.72727e-08
1.66942e-08
1.65242e-08
1.65431e-08
1.57646e-08
1.55921e-08
1.60319e-08
1.59179e-08
1.65816e-08
1.76481e-08
1.76855e-08
1.75546e-08
1.76304e-08
1.68416e-08
1.55177e-08
1.43046e-08
1.33513e-08
1.17038e-08
1.02222e-08
8.67548e-09
7.9958e-09
6.74329e-09
5.82911e-09
4.42073e-09
3.64851e-09
3.15235e-09
2.81479e-09
2.68268e-09
2.43765e-09
2.30205e-09
1.48692e-08
1.48941e-08
1.46404e-08
1.41199e-08
1.37961e-08
1.38737e-08
1.38671e-08
1.40967e-08
1.46108e-08
1.45429e-08
1.45468e-08
1.48691e-08
1.44214e-08
1.40763e-08
1.41634e-08
1.34322e-08
1.31576e-08
1.39502e-08
1.4078e-08
1.39186e-08
1.42704e-08
1.38687e-08
1.25694e-08
1.11464e-08
9.91002e-09
8.20648e-09
6.54519e-09
5.15295e-09
4.33462e-09
3.2671e-09
2.50605e-09
1.56128e-09
1.3675e-09
9.25176e-10
1.08341e-09
7.47059e-10
7.00214e-10
5.56094e-10
4.05826e-10
7.62774e-10
1.44245e-08
1.41678e-08
1.36217e-08
1.30032e-08
1.25599e-08
1.23462e-08
1.24118e-08
1.25171e-08
1.27392e-08
1.3293e-08
1.35679e-08
1.36521e-08
1.38387e-08
1.31453e-08
1.17009e-08
1.0284e-08
8.07271e-09
5.20044e-09
3.24436e-09
1.83045e-09
7.92834e-10
2.54976e-10
7.7222e-11
1.21752e-11
1.57896e-12
1.29902e-12
1.37474e-12
3.94579e-12
3.00177e-12
2.71477e-12
1.26491e-13
3.2826e-14
1.80215e-12
4.18252e-12
1.16171e-11
1.32356e-11
3.86334e-11
5.55407e-11
1.12253e-10
1.63783e-10
1.23984e-08
1.23611e-08
1.21056e-08
1.16356e-08
1.12325e-08
1.10796e-08
1.10534e-08
1.12039e-08
1.14648e-08
1.15106e-08
1.14585e-08
1.09349e-08
9.24245e-09
6.87808e-09
4.17193e-09
1.50237e-09
1.95727e-10
4.26688e-13
5.38533e-11
4.17635e-10
7.79929e-10
9.31965e-10
1.02771e-09
1.01097e-09
7.98086e-10
5.66288e-10
3.67598e-10
2.21488e-10
1.05753e-10
4.39792e-11
1.25255e-11
4.0055e-12
2.62782e-13
3.22746e-14
1.02175e-12
2.66676e-12
7.18111e-12
9.59414e-12
1.08953e-11
1.28302e-11
1.2334e-09
1.27543e-09
1.35863e-09
1.48429e-09
1.66682e-09
1.88868e-09
2.09904e-09
2.30494e-09
2.48112e-09
2.5124e-09
2.36426e-09
2.03798e-09
1.49011e-09
8.51367e-10
3.37689e-10
6.14007e-11
6.91365e-13
2.76413e-11
1.55639e-10
3.17993e-10
3.67717e-10
3.17955e-10
2.56868e-10
2.07236e-10
1.45308e-10
9.02205e-11
5.01782e-11
2.7849e-11
1.27124e-11
4.3153e-12
6.54843e-13
5.9554e-14
5.15e-14
1.92243e-13
7.3454e-13
1.2441e-12
2.84777e-12
3.02044e-12
4.18867e-12
2.45596e-12
7.73657e-12
8.70699e-12
1.20282e-11
1.77557e-11
2.71852e-11
3.94845e-11
5.12801e-11
6.54176e-11
8.34468e-11
9.68256e-11
1.06418e-10
1.06188e-10
8.58704e-11
5.61136e-11
2.65459e-11
4.98384e-12
4.41237e-13
6.55316e-12
2.69737e-11
5.41433e-11
6.67586e-11
6.03725e-11
4.44304e-11
2.91523e-11
1.58839e-11
6.93519e-12
2.51207e-12
8.87119e-13
1.7019e-13
2.9413e-15
2.89419e-14
1.80495e-13
5.00458e-13
6.88555e-13
1.0399e-12
9.60482e-13
1.11888e-12
8.08412e-13
6.80514e-13
3.82233e-13
3.09925e-14
1.88423e-14
3.83545e-14
7.56347e-14
1.37215e-13
2.42876e-13
4.00557e-13
6.06346e-13
9.12946e-13
1.33212e-12
1.82724e-12
2.27426e-12
2.44535e-12
2.34358e-12
1.26477e-12
1.04994e-13
3.27957e-13
3.36598e-12
7.87147e-12
8.72102e-12
4.85184e-12
1.14734e-12
7.81361e-14
2.53335e-15
1.20613e-13
3.06196e-13
4.23466e-13
4.34178e-13
4.43333e-13
3.73749e-13
2.97041e-13
1.94366e-13
1.31317e-13
7.5954e-14
4.62005e-14
2.33059e-14
1.3615e-14
5.03231e-15
6.07729e-15
2.15584e-14
)
;

boundaryField
{
    inlet
    {
        type            calculated;
        value           nonuniform List<scalar> 
20
(
1.6755e-34
6.62827e-33
5.90311e-33
1.14667e-32
6.03928e-34
7.27133e-34
6.60259e-35
2.47344e-34
4.76434e-34
3.69436e-34
4.67665e-34
3.22185e-34
2.54389e-34
1.44309e-34
1.01578e-34
5.23928e-34
1.32239e-34
5.95772e-33
6.18715e-33
1.49319e-34
)
;
    }
    outlet
    {
        type            calculated;
        value           nonuniform List<scalar> 
27
(
1.35632e-35
1.03821e-32
4.0057e-35
2.95548e-32
9.04616e-33
1.62426e-32
2.98595e-34
4.47849e-34
2.45816e-33
8.60543e-34
1.60905e-33
9.20086e-33
8.85222e-33
1.15667e-32
5.83937e-33
1.02225e-33
8.98018e-37
2.22815e-35
6.18806e-35
9.39728e-36
2.42172e-35
1.3326e-34
1.2557e-34
2.23826e-34
8.13837e-33
9.67238e-33
9.8684e-33
)
;
    }
    lowerWall
    {
        type            fixedValue;
        value           uniform 0;
    }
    upperWall
    {
        type            fixedValue;
        value           uniform 0;
    }
    defaultFaces
    {
        type            empty;
    }
}


// ************************************************************************* //
