/*--------------------------------*- C++ -*----------------------------------*\
| =========                 |                                                 |
| \\      /  F ield         | OpenFOAM: The Open Source CFD Toolbox           |
|  \\    /   O peration     | Version:  2112                                  |
|   \\  /    A nd           | Website:  www.openfoam.com                      |
|    \\/     M anipulation  |                                                 |
\*---------------------------------------------------------------------------*/
FoamFile
{
    version     2.0;
    format      ascii;
    arch        "LSB;label=32;scalar=64";
    class       volScalarField;
    location    "0.45";
    object      p;
}
// * * * * * * * * * * * * * * * * * * * * * * * * * * * * * * * * * * * * * //

dimensions      [0 2 -2 0 0 0 0];

internalField   nonuniform List<scalar> 
1880
(
0.0031205
0.00298743
0.00289407
0.00284591
0.00281775
0.00279644
0.00277815
0.00275987
0.00274552
0.002732
0.00272439
0.00271706
0.00271503
0.00271775
0.00271908
0.00273289
0.00274575
0.00276518
0.00279662
0.00282815
0.00287165
0.00292692
0.00298296
0.00304911
0.00313276
0.00320001
0.00328781
0.00334101
0.00338982
0.00334564
0.00294139
0.00290931
0.00286793
0.00283214
0.00280291
0.00278133
0.00276341
0.00274979
0.00273478
0.0027252
0.00271341
0.002708
0.00270308
0.00270548
0.00270489
0.00271685
0.00272777
0.0027438
0.00277274
0.0027981
0.00283746
0.00289008
0.00293104
0.00299982
0.00306328
0.00313003
0.00320157
0.00325777
0.00330321
0.00333451
0.00290701
0.002887
0.00285585
0.00282469
0.00279716
0.00277469
0.00275678
0.00274173
0.00272716
0.0027172
0.00270462
0.00269837
0.00269049
0.00269096
0.00268813
0.00269527
0.00270369
0.00271347
0.00273671
0.00275432
0.00278546
0.00282177
0.00285362
0.00290154
0.00294989
0.00299131
0.00303962
0.00308099
0.0031028
0.00312763
0.00284972
0.00283823
0.00281906
0.00280021
0.00277824
0.00275996
0.00274188
0.00272679
0.00271278
0.00270139
0.00269041
0.00268021
0.00267385
0.0026686
0.00266598
0.00266628
0.00267149
0.00267637
0.00268982
0.00270069
0.00272163
0.00274307
0.00276319
0.00279328
0.00281975
0.00283833
0.00286654
0.00287349
0.0028736
0.00286315
0.00282041
0.00281282
0.00279834
0.00278398
0.00276622
0.00274973
0.0027316
0.00271583
0.00270043
0.00268856
0.00267614
0.00266446
0.00265571
0.00264744
0.00264165
0.00263683
0.00263741
0.00263677
0.00264053
0.00264611
0.00265405
0.00266421
0.0026706
0.00268254
0.0026896
0.00269175
0.0026879
0.00267279
0.00264505
0.00260193
0.00279247
0.00278622
0.00277448
0.00276257
0.00274873
0.00273363
0.00271775
0.00270059
0.00268549
0.00267167
0.00265893
0.00264498
0.00263433
0.00262339
0.00261351
0.00260476
0.00259973
0.0025933
0.00258954
0.00258596
0.00258458
0.00258237
0.00257594
0.00257155
0.0025629
0.0025428
0.00251919
0.00248085
0.00242817
0.0023582
0.00277093
0.00276634
0.00275639
0.00274601
0.00273405
0.00272024
0.00270522
0.0026876
0.00267159
0.00265632
0.00264193
0.00262595
0.00261251
0.0025989
0.00258482
0.00257204
0.00256118
0.00254955
0.00253729
0.00252609
0.00251503
0.00250151
0.00248301
0.00246446
0.002439
0.00240369
0.00236071
0.00230132
0.00222828
0.00213839
0.00275352
0.00274927
0.00274102
0.00273076
0.00271999
0.00270627
0.00269194
0.00267383
0.00265663
0.00264019
0.00262374
0.00260572
0.0025896
0.00257285
0.00255522
0.00253781
0.0025218
0.0025042
0.00248501
0.00246576
0.00244585
0.00242193
0.00239285
0.00236008
0.00232233
0.00227198
0.00221234
0.002137
0.00204735
0.00193921
0.00273949
0.00273598
0.00272854
0.00271824
0.00270774
0.00269378
0.0026795
0.00266074
0.00264225
0.00262456
0.0026058
0.00258584
0.00256675
0.00254698
0.00252574
0.00250374
0.00248275
0.00245966
0.00243356
0.00240694
0.00237873
0.00234558
0.00230629
0.00226218
0.00221234
0.00214939
0.00207623
0.00198747
0.00188327
0.00176266
0.00272925
0.00272559
0.00271882
0.00270834
0.00269736
0.00268293
0.00266777
0.0026485
0.00262846
0.00260922
0.00258844
0.00256598
0.00254433
0.00252136
0.00249644
0.00247023
0.00244443
0.00241594
0.00238364
0.00235001
0.00231451
0.00227268
0.00222461
0.00217024
0.00211012
0.00203694
0.0019519
0.00185209
0.00173758
0.00160678
0.00272221
0.00271861
0.00271205
0.00270108
0.00268915
0.00267375
0.00265734
0.00263725
0.00261545
0.00259469
0.0025717
0.00254678
0.00252265
0.00249643
0.00246804
0.00243778
0.00240732
0.00237402
0.00233579
0.00229582
0.0022538
0.00220423
0.00214809
0.0020853
0.0020162
0.00193426
0.00183962
0.0017312
0.00160842
0.00146993
0.00271899
0.00271507
0.0027082
0.00269666
0.00268327
0.0026667
0.00264863
0.00262736
0.0026039
0.00258125
0.0025563
0.00252884
0.0025022
0.00247304
0.00244102
0.00240705
0.00237235
0.00233438
0.00229089
0.00224516
0.00219727
0.00214093
0.00207757
0.00200763
0.00193075
0.00184163
0.00173938
0.00162392
0.00149516
0.00135122
0.00271954
0.00271513
0.00270741
0.00269474
0.00267943
0.00266107
0.00264095
0.00261823
0.00259303
0.00256846
0.00254167
0.00251178
0.00248278
0.00245083
0.00241533
0.00237805
0.00233934
0.00229706
0.00224896
0.00219806
0.00214501
0.00208286
0.002013
0.00193717
0.00185396
0.00175869
0.0016504
0.00152955
0.00139625
0.00124816
0.0027248
0.00271983
0.00271101
0.00269702
0.00267955
0.00265913
0.00263682
0.0026122
0.00258525
0.00255853
0.00252973
0.00249746
0.00246575
0.00243112
0.00239227
0.00235173
0.00230945
0.00226304
0.00221082
0.00215545
0.00209761
0.00203044
0.001955
0.00187429
0.00178587
0.00168544
0.00157247
0.00144753
0.00131095
0.00116037
0.00273449
0.00272808
0.00271678
0.00270001
0.00267929
0.00265601
0.00263118
0.00260458
0.00257606
0.00254752
0.002517
0.00248298
0.00244906
0.00241214
0.0023704
0.00232711
0.00228179
0.00223171
0.00217604
0.00211686
0.00205467
0.00198325
0.00190327
0.00181852
0.0017259
0.00162115
0.00150448
0.00137661
0.00123762
0.00108505
0.00275346
0.00274554
0.00273119
0.00271061
0.00268579
0.00265912
0.00263167
0.00260303
0.00257301
0.00254264
0.00251011
0.00247395
0.0024373
0.00239768
0.00235305
0.00230685
0.0022585
0.00220491
0.00214604
0.00208357
0.00201727
0.00194209
0.00185857
0.00177035
0.00167409
0.00156573
0.00144637
0.00131667
0.00117613
0.00102266
0.00277396
0.00276179
0.00274152
0.00271538
0.00268637
0.00265698
0.00262773
0.00259768
0.00256649
0.00253447
0.00249991
0.00246189
0.00242306
0.00238129
0.00233469
0.00228648
0.00223595
0.00217974
0.00211847
0.00205342
0.00198356
0.00190532
0.0018194
0.00172839
0.00162909
0.00151811
0.00139699
0.00126612
0.0011243
0.000969527
0.00282725
0.00280467
0.00277048
0.00273293
0.00269694
0.0026638
0.00263271
0.00260107
0.00256812
0.00253385
0.00249693
0.00245715
0.00241617
0.00237239
0.00232441
0.00227429
0.00222122
0.00216241
0.0020987
0.00203081
0.00195741
0.00187647
0.00178841
0.00169432
0.00159206
0.00147935
0.00135735
0.00122602
0.00108382
0.000929177
0.00285604
0.00282129
0.00277645
0.00273383
0.00269593
0.00266272
0.00263119
0.0025983
0.00256405
0.00252811
0.00248938
0.00244856
0.00240609
0.00236054
0.00231125
0.00225919
0.00220375
0.00214312
0.00207762
0.00200727
0.00193094
0.00184878
0.00176069
0.00166475
0.00156
0.00144617
0.00132365
0.00119203
0.00104969
0.000894664
0.00303564
0.00289575
0.00279853
0.00274436
0.00270827
0.00267481
0.00264033
0.00260417
0.00256719
0.00252931
0.00248979
0.00244866
0.00240524
0.00235883
0.00230907
0.00225589
0.00219889
0.00213734
0.00207087
0.00199941
0.00192212
0.00183891
0.00174896
0.00165132
0.0015456
0.0014317
0.00130928
0.00117786
0.00103631
0.000883464
0.00347196
0.00354112
0.00318097
0.00284605
0.00228813
0.00169587
0.000816342
5.44732e-05
-0.00128361
-0.00264423
0.00348694
0.00336387
0.00284873
0.00245779
0.00184525
0.00119402
0.000360785
-0.000527532
-0.00162102
-0.0029205
0.00316721
0.00295428
0.00250265
0.00216465
0.00156934
0.0010414
0.000198136
-0.000534247
-0.00157997
-0.00247899
0.00286396
0.00263224
0.00223132
0.00180362
0.00128614
0.000684797
-3.22436e-05
-0.000791267
-0.00163868
-0.00248712
0.00254955
0.00231315
0.001907
0.0015294
0.00102662
0.00051018
-0.000140803
-0.000836197
-0.00159554
-0.00232963
0.00228169
0.00202856
0.00167812
0.00127779
0.000830184
0.000306636
-0.000275567
-0.00092646
-0.00159727
-0.00225285
0.0020323
0.00179118
0.00144403
0.00106817
0.000642995
0.000166372
-0.000363282
-0.000956196
-0.00155702
-0.00214065
0.0018185
0.00157709
0.0012571
0.000890528
0.0004987
4.72489e-05
-0.00044002
-0.000983474
-0.00153063
-0.00205739
0.00162694
0.00139508
0.0010876
0.000740629
0.000369734
-4.80203e-05
-0.000499093
-0.00099585
-0.00149288
-0.00196819
0.0014619
0.00123647
0.000946525
0.000615761
0.000267629
-0.000122444
-0.000541985
-0.000998193
-0.00145436
-0.00189061
0.00131705
0.00109924
0.000823495
0.000510195
0.000179981
-0.000184222
-0.000576128
-0.000996285
-0.0014152
-0.00181694
0.00119362
0.000982716
0.000721342
0.000424131
0.000111123
-0.000230388
-0.000597543
-0.000986458
-0.00137336
-0.00174745
0.00108606
0.000881139
0.000632363
0.000350517
5.22932e-05
-0.000269644
-0.000614447
-0.000975838
-0.00133489
-0.0016843
0.000996364
0.000797391
0.000560516
0.000292963
8.64742e-06
-0.000296159
-0.00062071
-0.00095866
-0.00129475
-0.00162401
0.000918465
0.00072338
0.0004964
0.000241559
-3.03712e-05
-0.000320333
-0.000626776
-0.000944152
-0.00126036
-0.00157118
0.000856057
0.000665947
0.000448485
0.000205265
-5.51898e-05
-0.00033218
-0.000623237
-0.000923704
-0.00122412
-0.00152093
0.000801192
0.000612972
0.00040244
0.000169051
-8.09798e-05
-0.000346216
-0.000623339
-0.000908787
-0.00119511
-0.00147882
0.00076203
0.000577831
0.00037405
0.000149224
-9.19191e-05
-0.000347581
-0.000614048
-0.000888476
-0.00116492
-0.00143978
0.000726714
0.000543608
0.000343835
0.000125962
-0.000106883
-0.000353197
-0.000609273
-0.000873362
-0.001141
-0.00140797
0.000718209
0.000536183
0.000337878
0.000123426
-0.000105371
-0.000347707
-0.000600236
-0.000861585
-0.00112692
-0.00139436
-0.00533305
-0.00570324
-0.00587453
-0.00597966
-0.0061104
-0.00625574
-0.00787239
-0.0104561
-0.0125133
-0.0135333
-0.0134334
-0.0124381
-0.0107823
-0.0088178
-0.00665064
-0.00446402
-0.00239182
-0.000514677
0.000927891
0.00195322
0.00252661
0.00273277
0.00269144
0.00249865
0.00223638
0.00195883
0.00169554
0.00146212
0.00126203
0.00109077
0.000940928
0.000805667
0.000676538
0.000550194
0.00042651
0.000311512
0.000210406
0.000127602
6.35645e-05
1.51615e-05
-0.00548011
-0.00578607
-0.00595631
-0.00587958
-0.00612258
-0.00700211
-0.00893447
-0.0114516
-0.0133397
-0.0142209
-0.0139826
-0.0128583
-0.0111008
-0.00908565
-0.00690767
-0.00470554
-0.00263541
-0.000733455
0.000744552
0.00178888
0.00239075
0.00261961
0.00259923
0.00242546
0.00217847
0.00191208
0.00165739
0.00143117
0.00123673
0.00106954
0.000922073
0.000787492
0.000658565
0.000533602
0.00041296
0.000302699
0.000206365
0.000126882
6.43996e-05
1.636e-05
-0.00566032
-0.00593691
-0.0059149
-0.00618874
-0.00650662
-0.00791404
-0.0102703
-0.0127446
-0.0145225
-0.0152796
-0.0148803
-0.0135338
-0.0116306
-0.00951242
-0.00733331
-0.00513266
-0.00305374
-0.00113468
0.000392658
0.00146386
0.00209834
0.00236349
0.00237865
0.00224069
0.00202757
0.00179032
0.00155954
0.0013521
0.00117173
0.00101426
0.000875167
0.00074806
0.000628953
0.000514927
0.000407
0.000307148
0.000217166
0.000139763
7.57798e-05
2.25791e-05
-0.00525065
-0.00550178
-0.00540524
-0.0055865
-0.00659387
-0.00885392
-0.0115013
-0.0139147
-0.0156658
-0.0163508
-0.0158231
-0.0142523
-0.0121918
-0.00999738
-0.00780648
-0.00561429
-0.00352556
-0.00160231
-5.34812e-05
0.00105039
0.00170899
0.00200926
0.00206968
0.00198163
0.00181743
0.00162398
0.00142934
0.00124956
0.0010907
0.000949584
0.000822099
0.000704107
0.000593046
0.000487712
0.000388061
0.000296164
0.000213314
0.000140461
7.78398e-05
2.42555e-05
-0.00551765
-0.00592096
-0.00532919
-0.00566172
-0.0065189
-0.0092403
-0.0121
-0.0146497
-0.0165187
-0.0172526
-0.0166785
-0.0149293
-0.0127196
-0.0104427
-0.00825179
-0.00608995
-0.00400134
-0.00208674
-0.000542858
0.000572684
0.00125187
0.00158651
0.00169571
0.00166556
0.00155943
0.00141918
0.00126958
0.00112473
0.000991001
0.000868142
0.000754331
0.000647831
0.0005476
0.000452892
0.000364277
0.000281552
0.000205874
0.000138514
7.88094e-05
2.59267e-05
-0.00444172
-0.00513488
-0.00432782
-0.00481415
-0.00619799
-0.00918966
-0.0122304
-0.0148792
-0.016814
-0.0175789
-0.0170315
-0.0152277
-0.012977
-0.0107186
-0.00855445
-0.00644001
-0.004382
-0.00250468
-0.000988513
0.000102813
0.000778619
0.00114124
0.00130307
0.00133668
0.00129284
0.00120776
0.00110389
0.000994555
0.000887054
0.000783414
0.000684632
0.000591098
0.000502606
0.000418424
0.000339176
0.000264264
0.000195446
0.000133031
7.62875e-05
2.50628e-05
-0.00463914
-0.00560888
-0.00466507
-0.00457254
-0.00577325
-0.0087234
-0.0117883
-0.0144845
-0.0164545
-0.0172742
-0.0167828
-0.015085
-0.012921
-0.0107463
-0.00865104
-0.00659874
-0.004604
-0.00280775
-0.00135907
-0.0003097
0.000361261
0.000744319
0.000943346
0.00102866
0.00103942
0.0010035
0.000940727
0.00086369
0.000780784
0.000695731
0.000611811
0.000530986
0.000453511
0.000379638
0.000309018
0.000243709
0.000181686
0.000124311
7.12604e-05
2.29863e-05
-0.00510269
-0.00410979
-0.00351278
-0.00389298
-0.00547416
-0.00814303
-0.0109446
-0.0134575
-0.0153037
-0.0161559
-0.0158601
-0.0144492
-0.0125239
-0.0105125
-0.00851795
-0.00655465
-0.0046666
-0.00298844
-0.00164484
-0.000677814
-3.05108e-05
0.000385091
0.000630959
0.000760624
0.000812228
0.00081162
0.000779836
0.000730181
0.000670566
0.000603769
0.000534447
0.000466804
0.000401668
0.000339469
0.000278545
0.000220782
0.000165612
0.000113289
6.52498e-05
2.09315e-05
-0.00389975
-0.0043264
-0.00457482
-0.00455615
-0.00529818
-0.00768036
-0.0101743
-0.0123851
-0.0140212
-0.0148053
-0.0146517
-0.0135181
-0.0118385
-0.0100042
-0.0081493
-0.00630751
-0.00458048
-0.0030798
-0.00186692
-0.000976135
-0.000363131
5.52018e-05
0.000332268
0.000502607
0.000594773
0.000627765
0.00062049
0.00059135
0.000550886
0.0005024
0.000449139
0.000395728
0.000343454
0.000292997
0.000243181
0.000195061
0.000146929
0.000101218
5.8669e-05
1.9174e-05
-0.00338366
-0.00390525
-0.00411694
-0.00451481
-0.00555519
-0.00744974
-0.00950551
-0.0113432
-0.0127024
-0.0133704
-0.0132478
-0.0123167
-0.0108558
-0.00919555
-0.00751153
-0.00588573
-0.00439819
-0.00311383
-0.00205706
-0.00124067
-0.000641268
-0.000216774
7.31115e-05
0.000259029
0.000369812
0.000428089
0.000449111
0.000446047
0.000426856
0.000396337
0.000359203
0.00032048
0.000281179
0.000241971
0.000202612
0.000163367
0.000124427
8.60018e-05
5.04079e-05
1.64687e-05
-0.003144
-0.00366556
-0.00415234
-0.00479042
-0.00566798
-0.00704782
-0.00863266
-0.0100478
-0.0110768
-0.0115817
-0.0115142
-0.0107909
-0.00959211
-0.00821056
-0.00680294
-0.0054416
-0.00419567
-0.00310887
-0.00219537
-0.00146258
-0.000902658
-0.000485367
-0.000182998
2.4537e-05
0.000158326
0.000236749
0.000277266
0.000295074
0.000298037
0.000288428
0.000269848
0.000246673
0.000220247
0.000191735
0.000162495
0.000133083
0.000102644
7.10329e-05
4.15995e-05
1.37306e-05
-0.00290505
-0.00344662
-0.00399271
-0.00463358
-0.00540903
-0.00644714
-0.00764498
-0.00872717
-0.00951865
-0.00993414
-0.00990354
-0.00936984
-0.00845166
-0.00734561
-0.00618912
-0.005068
-0.00402661
-0.00309203
-0.00228742
-0.00162437
-0.00110408
-0.000711802
-0.000419481
-0.000202835
-4.68422e-05
5.83001e-05
0.000124364
0.000162744
0.0001832
0.000189925
0.000186372
0.000176316
0.000160729
0.000142495
0.000121955
0.000100016
7.70358e-05
5.36171e-05
3.20714e-05
1.08808e-05
-0.00273553
-0.00325911
-0.00381187
-0.0044207
-0.00511388
-0.00593785
-0.00685246
-0.00768486
-0.00830126
-0.00860983
-0.00858124
-0.0081859
-0.00748231
-0.00661219
-0.00568005
-0.00474995
-0.00386647
-0.00305969
-0.00235376
-0.00176175
-0.00128068
-0.000900045
-0.000606262
-0.000384045
-0.000219063
-0.000100124
-1.68925e-05
3.91215e-05
7.538e-05
9.69376e-05
0.000107618
0.000109782
0.000104601
9.56448e-05
8.40725e-05
7.18439e-05
5.78631e-05
4.12834e-05
2.44889e-05
8.19745e-06
-0.00259584
-0.00308601
-0.00361326
-0.00417775
-0.00479627
-0.00547771
-0.00618796
-0.00682712
-0.00729774
-0.00753632
-0.00752224
-0.00723048
-0.00669628
-0.00600954
-0.00524692
-0.0044686
-0.00371922
-0.00302764
-0.00240912
-0.00187231
-0.0014254
-0.00106633
-0.000782451
-0.000558511
-0.000383652
-0.000252313
-0.000156412
-8.69171e-05
-3.67181e-05
-2.0515e-06
2.0359e-05
3.41159e-05
4.10672e-05
4.35445e-05
4.21607e-05
3.76132e-05
3.11878e-05
2.37342e-05
1.47982e-05
4.98503e-06
-0.00247829
-0.00292701
-0.00341696
-0.00393827
-0.00448979
-0.00506207
-0.00562846
-0.00612992
-0.00649967
-0.00669242
-0.00668479
-0.00646431
-0.00604703
-0.00549581
-0.00487279
-0.00422345
-0.00358646
-0.00298818
-0.00244484
-0.0019645
-0.00155225
-0.00121119
-0.000935719
-0.000714049
-0.00053589
-0.00039537
-0.00028713
-0.000204204
-0.000139857
-9.08182e-05
-5.47661e-05
-2.90315e-05
-1.15549e-05
2.94294e-07
7.27104e-06
1.05578e-05
1.18227e-05
9.86728e-06
6.75334e-06
2.52286e-06
-0.00236901
-0.00278113
-0.00322985
-0.00370702
-0.00419882
-0.0046877
-0.00515071
-0.00555064
-0.00584365
-0.0060025
-0.006003
-0.00583254
-0.00550518
-0.0050628
-0.00455121
-0.00400775
-0.00346619
-0.00295019
-0.00247063
-0.00203734
-0.00165938
-0.00134017
-0.00107565
-0.00085597
-0.000673347
-0.000523962
-0.000404367
-0.00030959
-0.000234537
-0.000175094
-0.000128345
-9.21274e-05
-6.45681e-05
-4.37687e-05
-2.84296e-05
-1.73065e-05
-9.74283e-06
-5.10075e-06
-2.49491e-06
-7.51502e-07
-0.00226733
-0.00264744
-0.00305686
-0.00349165
-0.00393164
-0.00435409
-0.00474038
-0.00506827
-0.00530945
-0.00544088
-0.00544595
-0.00531465
-0.00505474
-0.00469435
-0.00427181
-0.00381933
-0.00335902
-0.00290916
-0.00248688
-0.00210245
-0.00175856
-0.00145725
-0.00120028
-0.000983571
-0.000800029
-0.000645961
-0.000519088
-0.000414978
-0.000328925
-0.000258205
-0.000200702
-0.000154289
-0.000116941
-8.75158e-05
-6.42435e-05
-4.61518e-05
-3.13735e-05
-1.94449e-05
-1.06683e-05
-3.35376e-06
-0.00217208
-0.00252513
-0.00290003
-0.00329432
-0.00368739
-0.004058
-0.00438854
-0.00466279
-0.00486437
-0.00497519
-0.00498347
-0.00488122
-0.00467294
-0.00438079
-0.00403241
-0.00365187
-0.0032599
-0.0028735
-0.00250382
-0.00215806
-0.00184201
-0.00156004
-0.00131429
-0.0011023
-0.000918389
-0.000758783
-0.000622686
-0.000508355
-0.000411946
-0.000330715
-0.000262845
-0.000206833
-0.000160442
-0.000122232
-9.09947e-05
-6.58656e-05
-4.58316e-05
-3.02782e-05
-1.73458e-05
-5.66696e-06
-0.0020836
-0.00241375
-0.00275817
-0.00311534
-0.00346852
-0.00379717
-0.00408458
-0.00431982
-0.00449132
-0.00458669
-0.0045973
-0.0045171
-0.0043503
-0.00411254
-0.00382435
-0.00350592
-0.00317452
-0.00284217
-0.00251716
-0.00220817
-0.00192099
-0.00165846
-0.00142283
-0.00121385
-0.00102853
-0.000864726
-0.000722008
-0.000599285
-0.000494046
-0.000403987
-0.000327147
-0.000262228
-0.000207661
-0.000162343
-0.000124363
-9.25487e-05
-6.58009e-05
-4.30487e-05
-2.41445e-05
-7.9149e-06
-0.00200248
-0.00231262
-0.00263066
-0.00295603
-0.00327497
-0.00356864
-0.00382239
-0.00402701
-0.00417653
-0.00426001
-0.00427132
-0.0042084
-0.00407481
-0.00388121
-0.0036445
-0.00338019
-0.00309998
-0.00281465
-0.00253237
-0.00225838
-0.00199695
-0.00175132
-0.00152463
-0.00131875
-0.00113253
-0.000964535
-0.000814765
-0.000682955
-0.000567507
-0.000467144
-0.00038028
-0.000305734
-0.000242187
-0.000188922
-0.000144483
-0.000107774
-7.69698e-05
-5.09751e-05
-2.88209e-05
-9.38723e-06
-0.00192824
-0.00222129
-0.00251715
-0.00281539
-0.00310462
-0.00336895
-0.00359592
-0.00377788
-0.00390807
-0.00398242
-0.00399539
-0.00394538
-0.00383768
-0.00368156
-0.00348811
-0.00326966
-0.00303641
-0.00279542
-0.00255179
-0.00230974
-0.00207253
-0.00184306
-0.00162494
-0.00142127
-0.00123289
-0.00105983
-0.00090268
-0.000762053
-0.000637625
-0.000528558
-0.000433446
-0.000351202
-0.000280392
-0.000220174
-0.000169123
-0.000126262
-9.0276e-05
-5.98987e-05
-3.3918e-05
-1.11578e-05
-0.00186145
-0.00214019
-0.00241734
-0.00269255
-0.00295691
-0.00319701
-0.00340144
-0.00356355
-0.00367942
-0.00374551
-0.00375858
-0.00371943
-0.00363287
-0.00350689
-0.00335102
-0.00317425
-0.00298357
-0.00278363
-0.00257714
-0.00236606
-0.00215185
-0.00193675
-0.0017251
-0.0015218
-0.00132988
-0.00115107
-0.000986352
-0.000836376
-0.000701757
-0.000582482
-0.00047745
-0.000386135
-0.000307641
-0.000241089
-0.000184703
-0.000137242
-9.74805e-05
-6.4187e-05
-3.5964e-05
-1.15518e-05
-0.00180168
-0.00206884
-0.00233043
-0.00258638
-0.00282933
-0.00304857
-0.00323451
-0.00338035
-0.00348346
-0.00354215
-0.0035547
-0.00352302
-0.00345331
-0.00335314
-0.00323
-0.00309109
-0.00294071
-0.00278032
-0.00261026
-0.00242978
-0.00223743
-0.00203494
-0.00182803
-0.00162326
-0.00142552
-0.00123849
-0.00106475
-0.000905185
-0.000760467
-0.000631387
-0.000517312
-0.000417781
-0.000332269
-0.00025983
-0.000198566
-0.000147046
-0.000104008
-6.8055e-05
-3.80071e-05
-1.22719e-05
-0.00174966
-0.00200768
-0.00225716
-0.00249745
-0.00272211
-0.0029225
-0.00309131
-0.00322334
-0.0033154
-0.00336669
-0.00337716
-0.00335014
-0.00329337
-0.00321497
-0.00312135
-0.00301839
-0.00290777
-0.0027866
-0.00265176
-0.00250036
-0.00232931
-0.00213858
-0.00193413
-0.00172515
-0.00151898
-0.00132131
-0.00113633
-0.00096604
-0.000811026
-0.000671529
-0.000548277
-0.000441044
-0.000348984
-0.000270994
-0.000205396
-0.00015049
-0.000105036
-6.74917e-05
-3.68559e-05
-1.13068e-05
-0.00170458
-0.00195632
-0.0021973
-0.002426
-0.00263675
-0.00282213
-0.00297564
-0.00309394
-0.00317528
-0.00321861
-0.00322508
-0.00319986
-0.00315233
-0.00309152
-0.00302429
-0.00295618
-0.00288637
-0.00280537
-0.00270443
-0.00257767
-0.00241984
-0.00223342
-0.00202887
-0.00181633
-0.00160272
-0.00139487
-0.00119786
-0.0010156
-0.000849576
-0.0007009
-0.000569708
-0.00045593
-0.000358614
-0.000276474
-0.00020769
-0.000150467
-0.00010364
-6.52741e-05
-3.492e-05
-1.01943e-05
-0.00166752
-0.00191484
-0.00214908
-0.00236777
-0.00256637
-0.00273967
-0.00288281
-0.00299123
-0.00306254
-0.0030973
-0.00309832
-0.00307213
-0.00302995
-0.00298311
-0.00293898
-0.00290324
-0.00287566
-0.00283934
-0.00277266
-0.00266433
-0.00250942
-0.00231583
-0.00209938
-0.00187428
-0.00164929
-0.00143161
-0.00122666
-0.00103806
-0.000866535
-0.000712499
-0.000576587
-0.000459124
-0.000359146
-0.00027493
-0.000204644
-0.000146389
-9.90868e-05
-6.08157e-05
-3.13816e-05
-8.28054e-06
-0.00165608
-0.00190204
-0.00213207
-0.00234512
-0.0025378
-0.00270506
-0.00284207
-0.00294458
-0.00301038
-0.00304025
-0.00303759
-0.00301001
-0.00296892
-0.00292475
-0.00288722
-0.00286262
-0.00284808
-0.00282516
-0.00277253
-0.00267579
-0.00252964
-0.00234043
-0.00212383
-0.00189582
-0.00166638
-0.00144459
-0.00123606
-0.0010445
-0.000870525
-0.000714814
-0.000577618
-0.000459293
-0.000358389
-0.00027373
-0.000202879
-0.000144657
-9.72096e-05
-5.92407e-05
-3.01791e-05
-7.33208e-06
)
;

boundaryField
{
    inlet
    {
        type            zeroGradient;
    }
    outlet
    {
        type            fixedValue;
        value           uniform 0;
    }
    lowerWall
    {
        type            zeroGradient;
    }
    upperWall
    {
        type            zeroGradient;
    }
    defaultFaces
    {
        type            empty;
    }
}


// ************************************************************************* //
