/*--------------------------------*- C++ -*----------------------------------*\
| =========                 |                                                 |
| \\      /  F ield         | OpenFOAM: The Open Source CFD Toolbox           |
|  \\    /   O peration     | Version:  2112                                  |
|   \\  /    A nd           | Website:  www.openfoam.com                      |
|    \\/     M anipulation  |                                                 |
\*---------------------------------------------------------------------------*/
FoamFile
{
    version     2.0;
    format      ascii;
    arch        "LSB;label=32;scalar=64";
    class       volVectorField;
    location    "0.45";
    object      U;
}
// * * * * * * * * * * * * * * * * * * * * * * * * * * * * * * * * * * * * * //

dimensions      [0 1 -1 0 0 0 0];

internalField   nonuniform List<vector> 
1880
(
(0.0988924 0.000557287 0)
(0.0985223 0.00119793 0)
(0.0972122 0.00126931 0)
(0.0959744 0.00138748 0)
(0.0939954 0.00130261 0)
(0.0925382 0.00145656 0)
(0.0904257 0.00137046 0)
(0.0889466 0.00148986 0)
(0.0868441 0.00137962 0)
(0.0852601 0.00148052 0)
(0.0831449 0.00137314 0)
(0.081483 0.0014511 0)
(0.0792276 0.00136373 0)
(0.0776261 0.00148553 0)
(0.0750118 0.00140406 0)
(0.073616 0.00148642 0)
(0.0704532 0.00147894 0)
(0.0692317 0.00158503 0)
(0.0654574 0.00161793 0)
(0.0642364 0.00176275 0)
(0.0598383 0.00173331 0)
(0.058357 0.00211444 0)
(0.053276 0.00209208 0)
(0.0509728 0.00256356 0)
(0.0454277 0.00251984 0)
(0.0415563 0.003212 0)
(0.0354566 0.00353658 0)
(0.0291486 0.00388881 0)
(0.0227315 0.00445607 0)
(0.0131158 0.00258342 0)
(0.0999646 0.000831989 0)
(0.10011 0.00122244 0)
(0.100962 0.0018267 0)
(0.100496 0.00159764 0)
(0.101622 0.00199925 0)
(0.100664 0.00181169 0)
(0.101652 0.00216868 0)
(0.100693 0.00203848 0)
(0.101373 0.00225275 0)
(0.100423 0.00228271 0)
(0.101079 0.00220514 0)
(0.0998062 0.00261647 0)
(0.10052 0.002239 0)
(0.0990661 0.00280096 0)
(0.0993888 0.00259801 0)
(0.0982335 0.00282839 0)
(0.0979864 0.00311718 0)
(0.0964623 0.00315507 0)
(0.0968101 0.00338521 0)
(0.093698 0.00385696 0)
(0.0950779 0.0040032 0)
(0.0905091 0.00440463 0)
(0.0920159 0.00528252 0)
(0.0865168 0.00539313 0)
(0.0882192 0.00632872 0)
(0.0803297 0.0075474 0)
(0.0832382 0.00793398 0)
(0.0720485 0.00978273 0)
(0.0762145 0.0105492 0)
(0.0592127 0.0114966 0)
(0.100247 0.000464137 0)
(0.0998697 0.000346657 0)
(0.10082 0.00124121 0)
(0.100447 0.00096406 0)
(0.101396 0.00140874 0)
(0.100978 0.00145909 0)
(0.101708 0.00148065 0)
(0.101386 0.00166664 0)
(0.101966 0.0019341 0)
(0.101539 0.00154605 0)
(0.102348 0.00247231 0)
(0.101399 0.00166295 0)
(0.102714 0.00264706 0)
(0.101251 0.00216075 0)
(0.102547 0.00293657 0)
(0.101332 0.00228787 0)
(0.102024 0.00393097 0)
(0.100919 0.0023543 0)
(0.101909 0.00465783 0)
(0.0995498 0.00350476 0)
(0.101699 0.00494254 0)
(0.0981107 0.00485996 0)
(0.100517 0.00674784 0)
(0.0966706 0.00543439 0)
(0.09879 0.0094442 0)
(0.093969 0.00744251 0)
(0.0970928 0.011774 0)
(0.0899626 0.0106451 0)
(0.0942403 0.0159818 0)
(0.0850693 0.0134671 0)
(0.10025 0.000431814 0)
(0.0997956 0.00040091 0)
(0.100556 0.00118546 0)
(0.100229 0.00102074 0)
(0.10091 0.00149774 0)
(0.100687 0.00142629 0)
(0.101292 0.00165006 0)
(0.100973 0.00163551 0)
(0.101721 0.00204047 0)
(0.101122 0.00166363 0)
(0.102032 0.00250463 0)
(0.101313 0.00186954 0)
(0.102229 0.00272004 0)
(0.101419 0.00241855 0)
(0.102353 0.00301339 0)
(0.101412 0.00271802 0)
(0.102303 0.00394782 0)
(0.10135 0.00295608 0)
(0.102098 0.00474495 0)
(0.100999 0.00423329 0)
(0.102046 0.00515238 0)
(0.0999857 0.00581679 0)
(0.102038 0.00676751 0)
(0.0991451 0.00706235 0)
(0.101001 0.00911458 0)
(0.0987473 0.00953535 0)
(0.0997951 0.0117648 0)
(0.0973887 0.0128158 0)
(0.0988719 0.0155061 0)
(0.0962735 0.0178384 0)
(0.10009 0.000393343 0)
(0.0999612 0.00010273 0)
(0.100323 0.000951311 0)
(0.100283 0.000610923 0)
(0.100613 0.00125118 0)
(0.100656 0.0010034 0)
(0.100939 0.00151659 0)
(0.101002 0.00108896 0)
(0.101262 0.00206948 0)
(0.10128 0.0010422 0)
(0.101471 0.00257357 0)
(0.101568 0.00135584 0)
(0.101644 0.0027254 0)
(0.101764 0.00200806 0)
(0.101795 0.00308383 0)
(0.101854 0.00234034 0)
(0.101858 0.00403319 0)
(0.101869 0.00273457 0)
(0.101792 0.00485508 0)
(0.101817 0.00399698 0)
(0.101691 0.00558607 0)
(0.101391 0.00537222 0)
(0.101722 0.00741752 0)
(0.101052 0.0066651 0)
(0.101268 0.00983495 0)
(0.100987 0.00914104 0)
(0.100778 0.0125062 0)
(0.100906 0.0124081 0)
(0.100394 0.0164275 0)
(0.10096 0.0167317 0)
(0.100087 0.000268151 0)
(0.0999966 0.000175429 0)
(0.100204 0.000794651 0)
(0.10032 0.000582871 0)
(0.100398 0.00115984 0)
(0.100629 0.000932505 0)
(0.100726 0.00144549 0)
(0.100925 0.0010896 0)
(0.101069 0.0019061 0)
(0.101259 0.00114212 0)
(0.101215 0.00239465 0)
(0.101645 0.00144898 0)
(0.101401 0.00262352 0)
(0.101831 0.00210593 0)
(0.10169 0.00296912 0)
(0.101946 0.00257637 0)
(0.101837 0.00382384 0)
(0.102099 0.00310645 0)
(0.101857 0.00463363 0)
(0.102192 0.00438099 0)
(0.101969 0.00547696 0)
(0.101968 0.00576393 0)
(0.102175 0.00719785 0)
(0.102003 0.00731554 0)
(0.101946 0.00936466 0)
(0.102333 0.00979057 0)
(0.102057 0.012105 0)
(0.10247 0.0129034 0)
(0.102538 0.0155283 0)
(0.10309 0.0173261 0)
(0.10005 0.000259354 0)
(0.10001 6.05054e-05 0)
(0.100158 0.000691466 0)
(0.100295 0.000382274 0)
(0.100318 0.00101286 0)
(0.100594 0.000683639 0)
(0.10059 0.00132085 0)
(0.100906 0.000828358 0)
(0.100939 0.00175607 0)
(0.10124 0.000943375 0)
(0.101142 0.00217504 0)
(0.101637 0.00130812 0)
(0.101367 0.00242814 0)
(0.101894 0.00191726 0)
(0.101691 0.00286804 0)
(0.102095 0.00240014 0)
(0.101941 0.00368857 0)
(0.10233 0.00302022 0)
(0.102083 0.00452679 0)
(0.102614 0.00420676 0)
(0.102281 0.00554814 0)
(0.102666 0.00547874 0)
(0.102643 0.00728131 0)
(0.102938 0.00703845 0)
(0.102799 0.00936921 0)
(0.103486 0.00943649 0)
(0.103233 0.0119982 0)
(0.104154 0.01232 0)
(0.104096 0.0153203 0)
(0.105088 0.0161731 0)
(0.100054 0.000157525 0)
(0.100021 9.3885e-05 0)
(0.100117 0.000541213 0)
(0.100285 0.00032823 0)
(0.100277 0.000852564 0)
(0.100543 0.00058237 0)
(0.100569 0.00114068 0)
(0.100831 0.000767793 0)
(0.100941 0.00150633 0)
(0.101196 0.00094759 0)
(0.101169 0.00189232 0)
(0.101626 0.00131217 0)
(0.101461 0.00218414 0)
(0.101916 0.00188935 0)
(0.101852 0.00264948 0)
(0.102209 0.00240128 0)
(0.10218 0.003434 0)
(0.102539 0.00307402 0)
(0.102472 0.00426 0)
(0.102926 0.00422234 0)
(0.102835 0.00532012 0)
(0.103206 0.00548053 0)
(0.10332 0.00693293 0)
(0.103754 0.00708774 0)
(0.103754 0.00888962 0)
(0.104468 0.00932317 0)
(0.104614 0.0113906 0)
(0.105408 0.0120819 0)
(0.105806 0.0143175 0)
(0.106763 0.0156254 0)
(0.100049 0.000138833 0)
(0.10001 4.71766e-05 0)
(0.100106 0.000434648 0)
(0.100261 0.000237836 0)
(0.100268 0.0006858 0)
(0.100526 0.000456349 0)
(0.100557 0.000947978 0)
(0.100816 0.000642758 0)
(0.100964 0.00127013 0)
(0.101181 0.000852945 0)
(0.101254 0.00162049 0)
(0.101635 0.00120766 0)
(0.101593 0.00194549 0)
(0.101998 0.00172791 0)
(0.102025 0.00243576 0)
(0.102383 0.00225376 0)
(0.102445 0.00317438 0)
(0.102801 0.00294353 0)
(0.102864 0.00400531 0)
(0.103321 0.00400743 0)
(0.103365 0.00510502 0)
(0.10379 0.00520374 0)
(0.104014 0.00663012 0)
(0.104534 0.0067741 0)
(0.10471 0.00844904 0)
(0.105465 0.00887899 0)
(0.105813 0.0107822 0)
(0.106709 0.0113965 0)
(0.107298 0.0134955 0)
(0.108343 0.0145275 0)
(0.100041 8.05444e-05 0)
(0.100021 4.12358e-05 0)
(0.100098 0.000311506 0)
(0.100245 0.000173894 0)
(0.100289 0.000509139 0)
(0.100499 0.000357415 0)
(0.100601 0.000720292 0)
(0.100804 0.000555263 0)
(0.101018 0.000985839 0)
(0.101208 0.000780653 0)
(0.101348 0.00131484 0)
(0.101691 0.00110788 0)
(0.101754 0.00166328 0)
(0.102102 0.00158188 0)
(0.102247 0.00215557 0)
(0.102576 0.00211439 0)
(0.102747 0.0028443 0)
(0.103082 0.00281238 0)
(0.103291 0.00364831 0)
(0.10372 0.00381302 0)
(0.103915 0.00473024 0)
(0.104368 0.00496331 0)
(0.104709 0.00614057 0)
(0.105291 0.00646631 0)
(0.105637 0.00784355 0)
(0.106383 0.00839987 0)
(0.106975 0.00996456 0)
(0.107875 0.0107353 0)
(0.108666 0.0124077 0)
(0.109746 0.0134785 0)
(0.100033 5.30829e-05 0)
(0.100024 1.19505e-05 0)
(0.100094 0.000194256 0)
(0.100238 9.85754e-05 0)
(0.100308 0.000327534 0)
(0.100509 0.000238933 0)
(0.100645 0.000499961 0)
(0.100833 0.000415096 0)
(0.101092 0.00072906 0)
(0.101263 0.000634258 0)
(0.101467 0.00103055 0)
(0.101788 0.000938168 0)
(0.101922 0.00137595 0)
(0.102258 0.00137151 0)
(0.102475 0.00185248 0)
(0.102807 0.0018932 0)
(0.103061 0.0024972 0)
(0.103395 0.00256625 0)
(0.103713 0.00327253 0)
(0.104154 0.00349004 0)
(0.104449 0.0043128 0)
(0.104948 0.0045813 0)
(0.105398 0.00560444 0)
(0.106013 0.00599711 0)
(0.106509 0.00716339 0)
(0.107279 0.00776064 0)
(0.108016 0.00909853 0)
(0.108965 0.00985668 0)
(0.109893 0.0112989 0)
(0.111024 0.0122568 0)
(0.100023 1.63262e-05 0)
(0.100034 -1.75452e-05 0)
(0.100102 7.57102e-05 0)
(0.100238 1.79264e-05 0)
(0.100349 0.00014671 0)
(0.100529 0.000121245 0)
(0.10071 0.000274171 0)
(0.10089 0.00027994 0)
(0.101176 0.000471522 0)
(0.101359 0.000480211 0)
(0.101596 0.000756252 0)
(0.101917 0.000754966 0)
(0.102113 0.00108672 0)
(0.102432 0.00115587 0)
(0.102726 0.00153084 0)
(0.103063 0.00166278 0)
(0.103383 0.00212652 0)
(0.103733 0.00230072 0)
(0.104135 0.00286148 0)
(0.104596 0.0031476 0)
(0.104976 0.00383718 0)
(0.105517 0.00417464 0)
(0.106061 0.00501017 0)
(0.106709 0.00547578 0)
(0.107329 0.00643432 0)
(0.108118 0.00706511 0)
(0.108976 0.00816427 0)
(0.109965 0.00893787 0)
(0.110989 0.0101297 0)
(0.112156 0.0110276 0)
(0.100016 -1.38435e-05 0)
(0.100042 -6.17137e-05 0)
(0.100114 -4.95486e-05 0)
(0.100256 -9.51848e-05 0)
(0.100397 -4.90666e-05 0)
(0.100583 -5.28479e-05 0)
(0.100796 2.92977e-05 0)
(0.100983 6.31319e-05 0)
(0.101289 0.000185916 0)
(0.101489 0.000231788 0)
(0.101749 0.000434701 0)
(0.102084 0.000477301 0)
(0.102318 0.000732275 0)
(0.102644 0.000841036 0)
(0.102994 0.00114212 0)
(0.103342 0.00131626 0)
(0.103718 0.0016908 0)
(0.104093 0.001908 0)
(0.104555 0.00237625 0)
(0.105049 0.00267932 0)
(0.105494 0.00327276 0)
(0.106072 0.00363488 0)
(0.106705 0.0043293 0)
(0.107377 0.00481698 0)
(0.108087 0.00561001 0)
(0.108915 0.00622692 0)
(0.10985 0.00715175 0)
(0.110879 0.00787858 0)
(0.111974 0.00888122 0)
(0.113177 0.00968537 0)
(0.100009 -4.52513e-05 0)
(0.10005 -0.000115847 0)
(0.100134 -0.000172023 0)
(0.100278 -0.000211617 0)
(0.100454 -0.000226135 0)
(0.100651 -0.000206594 0)
(0.10089 -0.000176037 0)
(0.1011 -0.000114618 0)
(0.101415 -3.85794e-05 0)
(0.101645 3.17998e-05 0)
(0.101924 0.000185894 0)
(0.102273 0.00025784 0)
(0.102551 0.000448033 0)
(0.102883 0.000587784 0)
(0.103283 0.000817785 0)
(0.103651 0.00102228 0)
(0.104066 0.00131774 0)
(0.104476 0.00155603 0)
(0.104987 0.00193993 0)
(0.105509 0.00224727 0)
(0.106014 0.0027402 0)
(0.106625 0.00312161 0)
(0.10733 0.00368586 0)
(0.108026 0.00416784 0)
(0.108806 0.00481859 0)
(0.109671 0.00540204 0)
(0.110663 0.00616733 0)
(0.111721 0.00684197 0)
(0.112868 0.00767434 0)
(0.114087 0.00839989 0)
(0.100005 -8.36531e-05 0)
(0.100065 -0.000208851 0)
(0.100176 -0.000340936 0)
(0.100342 -0.000409719 0)
(0.100557 -0.000475229 0)
(0.100778 -0.00046725 0)
(0.101041 -0.000469636 0)
(0.101275 -0.00041774 0)
(0.101598 -0.000374637 0)
(0.101851 -0.000310558 0)
(0.102147 -0.000200275 0)
(0.102507 -0.0001235 0)
(0.102818 1.29888e-05 0)
(0.103158 0.000155673 0)
(0.1036 0.000338084 0)
(0.103986 0.000539584 0)
(0.104433 0.000783546 0)
(0.104878 0.00101459 0)
(0.105426 0.00133963 0)
(0.105972 0.00162887 0)
(0.106534 0.00204383 0)
(0.107169 0.00241822 0)
(0.107936 0.00288451 0)
(0.108653 0.00333287 0)
(0.109484 0.00387552 0)
(0.110382 0.00440544 0)
(0.111421 0.00504675 0)
(0.112495 0.00565005 0)
(0.113688 0.00633611 0)
(0.114919 0.00697152 0)
(0.100004 -0.000115058 0)
(0.100078 -0.000283318 0)
(0.100227 -0.00045879 0)
(0.100421 -0.000535721 0)
(0.100686 -0.000619314 0)
(0.100936 -0.000611206 0)
(0.101227 -0.000632141 0)
(0.101485 -0.000590967 0)
(0.101819 -0.000570473 0)
(0.10209 -0.000518205 0)
(0.102415 -0.000440192 0)
(0.10278 -0.000359748 0)
(0.103137 -0.000263771 0)
(0.103488 -0.00011971 0)
(0.103969 2.72933e-05 0)
(0.104371 0.000216781 0)
(0.104855 0.000419924 0)
(0.105326 0.000631885 0)
(0.105921 0.000898766 0)
(0.10647 0.00116497 0)
(0.107095 0.00150124 0)
(0.107741 0.00185828 0)
(0.108564 0.00223478 0)
(0.109295 0.00263077 0)
(0.110182 0.00307346 0)
(0.111091 0.00354269 0)
(0.112175 0.00406785 0)
(0.113232 0.00459548 0)
(0.114473 0.00515202 0)
(0.115692 0.00570076 0)
(0.100006 -0.000208029 0)
(0.100115 -0.000528469 0)
(0.100338 -0.0007982 0)
(0.100575 -0.000915265 0)
(0.100898 -0.00101474 0)
(0.101163 -0.0010177 0)
(0.101485 -0.0010516 0)
(0.101752 -0.00103284 0)
(0.10211 -0.00102843 0)
(0.10238 -0.000989374 0)
(0.102752 -0.000932244 0)
(0.103107 -0.000857729 0)
(0.103518 -0.000789887 0)
(0.10386 -0.000657236 0)
(0.104385 -0.000536573 0)
(0.104778 -0.000382933 0)
(0.10531 -0.000220043 0)
(0.105777 -4.01246e-05 0)
(0.106429 0.00017703 0)
(0.106955 0.000409307 0)
(0.107658 0.000680338 0)
(0.108287 0.000997724 0)
(0.109172 0.00130043 0)
(0.109885 0.00164164 0)
(0.110852 0.00201546 0)
(0.111735 0.00242347 0)
(0.11289 0.00284863 0)
(0.113899 0.00328982 0)
(0.11522 0.00372893 0)
(0.116392 0.0041875 0)
(0.100001 -0.000234402 0)
(0.100219 -0.000594514 0)
(0.100578 -0.000850338 0)
(0.100924 -0.000961723 0)
(0.101311 -0.00105106 0)
(0.101602 -0.00106953 0)
(0.101933 -0.00112611 0)
(0.102201 -0.00113479 0)
(0.102562 -0.00114615 0)
(0.102824 -0.0011334 0)
(0.10321 -0.00110065 0)
(0.103536 -0.00104581 0)
(0.103955 -0.00100938 0)
(0.10427 -0.000902693 0)
(0.104775 -0.000813494 0)
(0.105136 -0.00069903 0)
(0.105666 -0.000568909 0)
(0.106109 -0.000420887 0)
(0.106746 -0.000250078 0)
(0.107237 -4.61747e-05 0)
(0.107946 0.000176186 0)
(0.108553 0.000452392 0)
(0.109439 0.000680587 0)
(0.110135 0.000951683 0)
(0.111129 0.00125498 0)
(0.111971 0.00160301 0)
(0.113148 0.00194359 0)
(0.114121 0.00230309 0)
(0.115496 0.00263457 0)
(0.116658 0.00298579 0)
(0.0999773 -0.000690854 0)
(0.100345 -0.00135805 0)
(0.100712 -0.00157567 0)
(0.101092 -0.0016179 0)
(0.101329 -0.00167069 0)
(0.10155 -0.00170613 0)
(0.101661 -0.00176375 0)
(0.101818 -0.00177418 0)
(0.101895 -0.00176684 0)
(0.102016 -0.00173947 0)
(0.102096 -0.00170246 0)
(0.102237 -0.00165465 0)
(0.102287 -0.00161607 0)
(0.102414 -0.00151851 0)
(0.102532 -0.0014465 0)
(0.102709 -0.00136266 0)
(0.102833 -0.00126345 0)
(0.103078 -0.00113327 0)
(0.103298 -0.000998574 0)
(0.103644 -0.000832285 0)
(0.103985 -0.000679653 0)
(0.104458 -0.000487392 0)
(0.104928 -0.000323654 0)
(0.105538 -0.000107276 0)
(0.106219 0.000122019 0)
(0.107055 0.000383838 0)
(0.107972 0.000608895 0)
(0.109001 0.000854894 0)
(0.110141 0.0010731 0)
(0.111401 0.00132009 0)
(0.0990131 -0.000602907 0)
(0.0984662 -0.00114324 0)
(0.097421 -0.00128017 0)
(0.0960121 -0.00128306 0)
(0.094368 -0.00129299 0)
(0.0927919 -0.00132108 0)
(0.0911388 -0.00133788 0)
(0.0896086 -0.00131332 0)
(0.0880186 -0.00129147 0)
(0.0865349 -0.00126393 0)
(0.0849913 -0.00121502 0)
(0.0835971 -0.0011602 0)
(0.0821216 -0.00111453 0)
(0.0808366 -0.00106751 0)
(0.0794932 -0.0010235 0)
(0.0783479 -0.000953455 0)
(0.0771349 -0.00087178 0)
(0.0761968 -0.000809455 0)
(0.0751553 -0.000763985 0)
(0.0744221 -0.000683737 0)
(0.0736008 -0.000571101 0)
(0.0731744 -0.000462833 0)
(0.0726077 -0.000386477 0)
(0.0724678 -0.000312805 0)
(0.0721636 -0.000214376 0)
(0.0723926 -9.05947e-05 0)
(0.0724339 5.43573e-05 0)
(0.073063 0.000184331 0)
(0.0734405 0.000285256 0)
(0.0744387 0.000342363 0)
(0.0101894 -0.00014108 0)
(0.0389053 0.0135846 0)
(0.0285987 0.01029 0)
(0.0611899 0.024246 8.25095e-22)
(0.045153 0.0198164 6.82021e-22)
(0.0787409 0.0326961 0)
(0.0583204 0.0276955 2.57841e-22)
(0.0977461 0.0396474 1.77342e-23)
(0.0742732 0.0343318 6.75048e-22)
(0.123046 0.04342 0)
(0.0664931 0.0129272 0)
(0.0714387 0.020168 0)
(0.0795716 0.0225663 0)
(0.0856427 0.0305602 0)
(0.0919012 0.0321988 0)
(0.100569 0.0424357 1.71436e-22)
(0.10267 0.0380868 4.41431e-23)
(0.115476 0.0486827 -8.64366e-23)
(0.119574 0.0450495 -5.12815e-22)
(0.138383 0.0520224 -4.68342e-22)
(0.087511 0.0198472 0)
(0.0902052 0.0232004 0)
(0.0962801 0.030036 0)
(0.0977243 0.0292181 0)
(0.103196 0.0346113 0)
(0.10892 0.0377858 -1.71434e-22)
(0.115399 0.0428089 -4.41429e-23)
(0.120947 0.0381138 8.64361e-23)
(0.127958 0.0415567 2.68849e-22)
(0.139761 0.0399539 4.68347e-22)
(0.0958427 0.0198287 -3.62628e-22)
(0.0978161 0.0233286 0)
(0.101759 0.0271976 -2.9199e-22)
(0.105215 0.0312003 -2.41612e-22)
(0.108486 0.0316139 -1.72373e-22)
(0.112955 0.0347843 0)
(0.119947 0.0390009 0)
(0.125412 0.0390333 1.32488e-22)
(0.129376 0.0379706 2.71644e-22)
(0.138281 0.0355074 4.17804e-22)
(0.100318 0.0214177 3.62628e-22)
(0.102334 0.0224252 0)
(0.104839 0.0268554 2.91991e-22)
(0.108773 0.0278394 2.41612e-22)
(0.111749 0.031492 1.72373e-22)
(0.115567 0.0312158 0)
(0.120948 0.0356066 0)
(0.127284 0.033927 -1.32488e-22)
(0.131865 0.0348714 -2.71645e-22)
(0.138164 0.0302041 -4.17808e-22)
(0.103143 0.0201 0)
(0.105097 0.0216088 -2.62516e-22)
(0.107722 0.0246842 0)
(0.110806 0.026516 -1.70059e-22)
(0.114217 0.0287958 0)
(0.117956 0.0283537 0)
(0.122648 0.0316123 0)
(0.128244 0.0312055 -1.53263e-22)
(0.132729 0.0315156 0)
(0.137787 0.02766 0)
(0.105412 0.0195521 2.5795e-22)
(0.107443 0.0201976 4.94006e-22)
(0.10971 0.0233679 1.90588e-22)
(0.112995 0.0237594 1.7006e-22)
(0.116311 0.0267937 0)
(0.119913 0.0261176 -1.63828e-23)
(0.123659 0.0285144 0)
(0.128908 0.0276412 1.53263e-22)
(0.13326 0.0283985 0)
(0.137601 0.0242698 0)
(0.107439 0.0181185 -2.57951e-22)
(0.109382 0.0189102 -2.3149e-22)
(0.111818 0.0213642 -1.90588e-22)
(0.114753 0.0219806 0)
(0.11776 0.0241727 0)
(0.121376 0.0236068 1.63829e-23)
(0.124882 0.0253985 0)
(0.129403 0.0247398 0)
(0.133784 0.0252374 0)
(0.137661 0.0220126 0)
(0.109213 0.016856 0)
(0.111154 0.0173718 -1.80858e-22)
(0.113436 0.0196506 0)
(0.116304 0.0197941 -9.83261e-23)
(0.119196 0.0218043 0)
(0.122553 0.0214123 0)
(0.125815 0.0227708 8.22238e-23)
(0.129906 0.0218393 1.62332e-22)
(0.133795 0.0223106 0)
(0.137298 0.0196433 3.3472e-22)
(0.110805 0.0153728 0)
(0.112644 0.0158742 1.80858e-22)
(0.114914 0.0176876 0)
(0.117637 0.0179314 9.83262e-23)
(0.120303 0.0194884 0)
(0.123459 0.0190687 0)
(0.126628 0.0201204 -8.2224e-23)
(0.130244 0.0194 -1.62332e-22)
(0.133813 0.0196375 0)
(0.137131 0.0173854 -3.34721e-22)
(0.112185 0.0138754 8.40908e-23)
(0.114004 0.0142818 0)
(0.116163 0.0158444 0)
(0.118729 0.0159445 3.38652e-23)
(0.121327 0.0172428 0)
(0.124269 0.0169612 0)
(0.127212 0.0177454 0)
(0.130508 0.0169456 -8.07063e-23)
(0.133802 0.0170891 0)
(0.136866 0.0152993 0)
(0.113406 0.0123479 -7.73692e-24)
(0.115152 0.0127221 0)
(0.11724 0.0139918 4.7758e-23)
(0.119685 0.0141256 -5.78765e-24)
(0.122138 0.0151255 0)
(0.124875 0.0148574 0)
(0.127707 0.0154898 -4.78615e-23)
(0.130745 0.0148123 8.07064e-23)
(0.133703 0.014813 -1.13736e-22)
(0.136537 0.0132691 -1.48839e-22)
(0.114487 0.0107791 -6.60675e-24)
(0.116193 0.0111087 0)
(0.11819 0.0121475 -5.67387e-24)
(0.120502 0.0122502 -4.75428e-24)
(0.122871 0.0130654 2.27103e-24)
(0.12544 0.0128655 2.16963e-23)
(0.12809 0.0133053 -9.14852e-25)
(0.130909 0.0126656 -7.87428e-23)
(0.133647 0.0126381 3.30107e-24)
(0.136293 0.0113475 5.35373e-24)
(0.115439 0.00928086 -6.97474e-23)
(0.117097 0.00957661 0)
(0.119015 0.0104208 -4.20842e-23)
(0.121203 0.0105325 -2.33234e-23)
(0.12346 0.0111599 -2.27103e-24)
(0.125898 0.0109926 -4.53363e-23)
(0.128406 0.0113492 4.87764e-23)
(0.131022 0.0107917 7.87429e-23)
(0.133554 0.0106887 1.10435e-22)
(0.136041 0.00958905 1.43486e-22)
(0.116312 0.00768763 0)
(0.117933 0.00795206 0)
(0.119784 0.00862855 0)
(0.121861 0.00873186 0)
(0.124035 0.00922835 0)
(0.126337 0.00909885 2.364e-23)
(0.128702 0.00933959 0)
(0.131161 0.00885723 0)
(0.133533 0.00873962 0)
(0.135853 0.00782164 0)
(0.117132 0.00626754 0)
(0.118687 0.00650189 0)
(0.120492 0.0070435 0)
(0.122432 0.00715282 0)
(0.124532 0.00754131 0)
(0.126695 0.00744665 1.30069e-23)
(0.128961 0.00762751 0)
(0.131241 0.00722791 0)
(0.1335 0.00708452 0)
(0.135681 0.00631941 0)
(0.117928 0.00463785 0)
(0.119365 0.00484942 0)
(0.121189 0.00527828 1.36971e-23)
(0.122931 0.00538598 0)
(0.125015 0.00568115 -3.22166e-24)
(0.126949 0.00561192 -1.30069e-23)
(0.129165 0.00572251 0)
(0.131188 0.00539684 -3.65785e-23)
(0.133385 0.00525296 0)
(0.135306 0.00463979 0)
(0.118261 0.00332079 0)
(0.11933 0.00350451 0)
(0.121178 0.00383359 -1.36972e-23)
(0.122483 0.00395246 0)
(0.124589 0.00417662 3.22168e-24)
(0.126057 0.00414305 0)
(0.128305 0.00420212 0)
(0.129819 0.00394784 3.65787e-23)
(0.132049 0.00378672 0)
(0.133431 0.00330046 0)
(0.112822 0.00154364 -6.04947e-24)
(0.11323 0.00170036 -4.63821e-24)
(0.114969 0.0019261 -3.00633e-24)
(0.115592 0.00203619 0)
(0.117646 0.00217202 9.88746e-25)
(0.118372 0.00215676 0)
(0.120582 0.00216632 5.97049e-24)
(0.121238 0.00200479 0)
(0.123437 0.00188083 1.19056e-23)
(0.123818 0.00157956 1.51927e-23)
(0.075127 0.00036311 6.04878e-24)
(0.075246 0.000356013 4.63763e-24)
(0.0762752 0.000383384 3.00594e-24)
(0.0765922 0.000421592 0)
(0.0779537 0.00045749 -9.88602e-25)
(0.0783718 0.000459167 0)
(0.0799262 0.000435165 -5.96952e-24)
(0.0802128 0.000365023 0)
(0.0817239 0.000259061 -1.19034e-23)
(0.0815332 0.000114982 -1.51898e-23)
(0.0107398 -0.00664083 0)
(0.02346 0.000266559 0)
(0.0178895 0.00901768 0)
(0.0172056 -0.000632626 0)
(0.017347 0.00451245 0)
(-0.0209384 0.0173975 0)
(-0.0697875 0.0174547 0)
(-0.0995437 0.0113003 0)
(-0.120388 0.00750064 0)
(-0.129744 0.00382022 0)
(-0.132175 0.00109828 0)
(-0.128641 -0.00090301 0)
(-0.120447 -0.00226146 0)
(-0.110605 -0.00321167 0)
(-0.0963388 -0.0040577 0)
(-0.0824769 -0.00494535 0)
(-0.0650525 -0.00558918 0)
(-0.0451738 -0.00612176 0)
(-0.0274694 -0.00558651 0)
(-0.00772616 -0.005536 0)
(0.0093302 -0.00467925 0)
(0.024704 -0.00373897 0)
(0.0371349 -0.00266514 0)
(0.046817 -0.00165955 0)
(0.0537714 -0.000794593 0)
(0.0584761 -0.000121036 0)
(0.0613225 0.000361095 0)
(0.0628319 0.000685396 0)
(0.063339 0.000937198 0)
(0.063127 0.0012152 0)
(0.0621459 0.00151451 0)
(0.0604211 0.00176614 0)
(0.0579654 0.00185495 0)
(0.055036 0.00173784 0)
(0.0519481 0.00145297 0)
(0.0489558 0.00108752 0)
(0.0464447 0.00074518 0)
(0.0441807 0.000462996 0)
(0.0427951 0.000284489 0)
(0.0410567 0.000139195 0)
(0.0115378 -0.0189322 0)
(0.0136518 -0.00436895 0)
(0.0262435 -0.00495791 0)
(0.0087666 0.0011559 0)
(-0.0277142 0.0237336 0)
(-0.0671646 0.0417783 0)
(-0.0940918 0.035588 0)
(-0.113545 0.0244375 0)
(-0.124749 0.0145035 0)
(-0.130234 0.00568154 0)
(-0.127193 -0.00205202 0)
(-0.122675 -0.00755765 0)
(-0.109905 -0.0116414 0)
(-0.101015 -0.0142645 0)
(-0.0830959 -0.0164254 0)
(-0.0697937 -0.0180866 0)
(-0.050371 -0.0210182 0)
(-0.0322802 -0.0216944 0)
(-0.0129492 -0.0213205 0)
(0.00638385 -0.0207502 0)
(0.0236604 -0.0185716 0)
(0.0393715 -0.0159664 0)
(0.0525453 -0.0129479 0)
(0.0634648 -0.0099817 0)
(0.072022 -0.00725918 0)
(0.0785609 -0.0050262 0)
(0.0833715 -0.00329438 0)
(0.0868808 -0.00206585 0)
(0.0895066 -0.00112767 0)
(0.0914714 -0.000369941 0)
(0.0930514 0.000422412 0)
(0.094179 0.00116111 0)
(0.0951038 0.00193164 0)
(0.0954838 0.00248328 0)
(0.0955683 0.00285302 0)
(0.0948478 0.00279192 0)
(0.0940221 0.00262256 0)
(0.0924203 0.00211994 0)
(0.0915392 0.00184095 0)
(0.0895956 0.00126969 0)
(0.00976654 -0.0260915 0)
(-0.00494241 -0.0107105 0)
(-0.00515188 0.0132657 0)
(-0.0199814 0.0356192 0)
(-0.0439497 0.0565422 0)
(-0.0663817 0.0628829 0)
(-0.0808371 0.0497923 0)
(-0.0925091 0.0343336 0)
(-0.0987101 0.0203871 0)
(-0.101963 0.00702928 0)
(-0.0966857 -0.0045833 0)
(-0.091206 -0.0133074 0)
(-0.078141 -0.0187919 0)
(-0.068217 -0.0226095 0)
(-0.0535381 -0.026356 0)
(-0.0392357 -0.0292411 0)
(-0.023139 -0.0322602 0)
(-0.00665909 -0.0337845 0)
(0.010297 -0.0338492 0)
(0.0264637 -0.032434 0)
(0.0406954 -0.0290682 0)
(0.0532862 -0.0249235 0)
(0.0637153 -0.0203473 0)
(0.0723534 -0.0158995 0)
(0.0793042 -0.0117463 0)
(0.0848145 -0.00830325 0)
(0.0889112 -0.00565222 0)
(0.0920032 -0.00381495 0)
(0.0945186 -0.00244091 0)
(0.0967249 -0.00142297 0)
(0.0986007 -0.000513847 0)
(0.100258 0.00022434 0)
(0.101802 0.000942935 0)
(0.103397 0.00152654 0)
(0.104932 0.00210945 0)
(0.106179 0.00238876 0)
(0.107175 0.00265849 0)
(0.107251 0.00238925 0)
(0.107476 0.00235525 0)
(0.106448 0.00170798 0)
(0.00873064 -0.0192571 0)
(-0.00876008 0.00829706 0)
(-0.00932329 0.00658032 0)
(-0.0262012 0.035194 0)
(-0.0426278 0.0577918 0)
(-0.0553582 0.065867 0)
(-0.0574833 0.0536442 0)
(-0.0650878 0.0380051 0)
(-0.0676446 0.0222072 0)
(-0.0700936 0.00577892 0)
(-0.0646743 -0.00945827 0)
(-0.0575865 -0.0209361 0)
(-0.0457363 -0.0283101 0)
(-0.0349421 -0.032521 0)
(-0.0218265 -0.0366483 0)
(-0.00876069 -0.0400467 0)
(0.00565186 -0.0438905 0)
(0.0207705 -0.0457085 0)
(0.0353319 -0.0452002 0)
(0.0487916 -0.0424763 0)
(0.059891 -0.0378719 0)
(0.0689492 -0.0323957 0)
(0.0762511 -0.026487 0)
(0.0820056 -0.0209528 0)
(0.0864842 -0.0159261 0)
(0.0903039 -0.0116188 0)
(0.0932507 -0.00821721 0)
(0.095359 -0.00594556 0)
(0.0969686 -0.00439373 0)
(0.0987205 -0.00320334 0)
(0.100507 -0.00206983 0)
(0.1022 -0.00109745 0)
(0.10344 -0.00030438 0)
(0.104486 0.000184767 0)
(0.105595 0.000756305 0)
(0.106686 0.00104905 0)
(0.108158 0.00171863 0)
(0.109074 0.0017863 0)
(0.11015 0.00225721 0)
(0.110495 0.00198915 0)
(0.00126638 -0.0306887 0)
(-0.016312 0.000981638 0)
(-0.025808 0.0230604 0)
(-0.0200942 0.0535024 0)
(-0.0233905 0.0732407 0)
(-0.0227916 0.0769956 0)
(-0.0219726 0.0599647 0)
(-0.0271363 0.0425689 0)
(-0.0281654 0.0247215 0)
(-0.0291741 0.00581545 0)
(-0.0243604 -0.0134594 0)
(-0.0175335 -0.02781 0)
(-0.00788792 -0.0359574 0)
(0.00167828 -0.0405911 0)
(0.0120059 -0.0448277 0)
(0.0230231 -0.0493721 0)
(0.035315 -0.0533972 0)
(0.0475007 -0.0552796 0)
(0.0583112 -0.0546473 0)
(0.0682007 -0.0504137 0)
(0.0765281 -0.0436488 0)
(0.082057 -0.0366963 0)
(0.0859796 -0.0297639 0)
(0.0891767 -0.0232451 0)
(0.0913401 -0.0176897 0)
(0.0932214 -0.0131202 0)
(0.0951422 -0.00927439 0)
(0.0967455 -0.00656787 0)
(0.0977006 -0.00499452 0)
(0.0985973 -0.00408976 0)
(0.0998953 -0.00312004 0)
(0.101671 -0.0019554 0)
(0.103253 -0.000733233 0)
(0.104302 -3.50792e-06 0)
(0.104739 0.000578751 0)
(0.105084 0.000612499 0)
(0.105382 0.00103247 0)
(0.106387 0.00103839 0)
(0.10681 0.00140146 0)
(0.108524 0.00151928 0)
(-0.0171654 -0.00404239 0)
(-0.0249967 0.0333649 0)
(-0.0118444 0.0111815 0)
(-0.00491122 0.0416154 0)
(-0.00255991 0.0592326 0)
(0.0049351 0.0648572 0)
(0.0113641 0.0547484 0)
(0.012385 0.0419175 0)
(0.0144405 0.0243857 0)
(0.0165535 0.00430427 0)
(0.0218035 -0.0170132 0)
(0.026705 -0.0325529 0)
(0.0327792 -0.0418272 0)
(0.0388639 -0.0468642 0)
(0.0461051 -0.0513564 0)
(0.0551441 -0.0564004 0)
(0.0640206 -0.06102 0)
(0.0730405 -0.0622092 0)
(0.0797803 -0.0604217 0)
(0.0836934 -0.0559406 0)
(0.0877867 -0.047987 0)
(0.0908322 -0.0391668 0)
(0.0918748 -0.03148 0)
(0.0928695 -0.0245883 0)
(0.0938213 -0.0186051 0)
(0.0944845 -0.0141367 0)
(0.0954144 -0.010571 0)
(0.0968739 -0.0076653 0)
(0.0981303 -0.00564193 0)
(0.0988295 -0.00468689 0)
(0.0993115 -0.00418164 0)
(0.100376 -0.00341932 0)
(0.101759 -0.00213472 0)
(0.103383 -0.000841973 0)
(0.103813 0.000223369 0)
(0.104362 0.000619135 0)
(0.103248 0.000803336 0)
(0.103986 0.000734477 0)
(0.102986 0.000700484 0)
(0.104787 0.000693004 0)
(-0.0637438 -0.00544794 0)
(0.00166294 -0.00465149 0)
(-0.0303969 0.00265491 0)
(0.0153431 0.0420873 0)
(0.0288316 0.0657659 0)
(0.0443207 0.0681507 0)
(0.0520225 0.0565482 0)
(0.0556682 0.0412574 0)
(0.0599924 0.0220776 0)
(0.0633991 0.00104258 0)
(0.0669384 -0.0197535 0)
(0.0684103 -0.0352318 0)
(0.0700915 -0.0444222 0)
(0.0727855 -0.0502774 0)
(0.0780797 -0.055827 0)
(0.0852415 -0.0614548 0)
(0.0916308 -0.0657652 0)
(0.0954073 -0.0667251 0)
(0.0979577 -0.0625265 0)
(0.0972926 -0.0559362 0)
(0.0950312 -0.0483031 0)
(0.094451 -0.0393234 0)
(0.0938529 -0.0311139 0)
(0.0932305 -0.0245342 0)
(0.0935033 -0.0187264 0)
(0.0943562 -0.0141351 0)
(0.0953392 -0.0108712 0)
(0.0967845 -0.00844217 0)
(0.0984907 -0.00637909 0)
(0.0998556 -0.00494535 0)
(0.100318 -0.00425848 0)
(0.100707 -0.0037561 0)
(0.100944 -0.00294127 0)
(0.102444 -0.00150457 0)
(0.102809 -0.000120882 0)
(0.104324 0.00099854 0)
(0.103227 0.00130881 0)
(0.103975 0.0012011 0)
(0.102531 0.000844952 0)
(0.103224 0.000195531 0)
(0.105705 0.0380262 0)
(0.0796076 0.0179455 0)
(0.0404429 0.00321452 0)
(0.0279582 0.00327508 0)
(0.0420453 0.0342241 0)
(0.0678695 0.0482791 0)
(0.0839648 0.047142 0)
(0.094391 0.0377014 0)
(0.100764 0.0212363 0)
(0.104444 0.00123924 0)
(0.10589 -0.0185371 0)
(0.104523 -0.0342912 0)
(0.102841 -0.0452621 0)
(0.104014 -0.052612 0)
(0.108287 -0.0593423 0)
(0.113198 -0.065328 0)
(0.116748 -0.0676523 0)
(0.115634 -0.0666255 0)
(0.111144 -0.0620746 0)
(0.106996 -0.0539625 0)
(0.101855 -0.0454724 0)
(0.0976041 -0.0374651 0)
(0.0955093 -0.0298418 0)
(0.0944875 -0.0238187 0)
(0.0941635 -0.0191177 0)
(0.0948156 -0.0152937 0)
(0.0960843 -0.0121899 0)
(0.0978734 -0.00980315 0)
(0.0998743 -0.00775843 0)
(0.101789 -0.00592416 0)
(0.102696 -0.00473797 0)
(0.10314 -0.0037986 0)
(0.1026 -0.00331364 0)
(0.103112 -0.00213799 0)
(0.102973 -0.00110889 0)
(0.104346 0.00030167 0)
(0.10453 0.00109092 0)
(0.105496 0.00120505 0)
(0.105564 0.00127607 0)
(0.105772 0.000164943 0)
(0.138433 0.0412463 0)
(0.133783 0.0358679 0)
(0.120407 0.0365857 0)
(0.107639 0.035841 0)
(0.0885603 0.0364064 0)
(0.0946883 0.0368276 0)
(0.104804 0.0345481 0)
(0.114731 0.0271672 0)
(0.123116 0.014256 0)
(0.129038 -0.0018767 0)
(0.131688 -0.0195812 0)
(0.131816 -0.0346582 0)
(0.131878 -0.0459062 0)
(0.132326 -0.0549326 0)
(0.134092 -0.0622482 0)
(0.135144 -0.0669339 0)
(0.13265 -0.0674737 0)
(0.127182 -0.0630548 0)
(0.118418 -0.0561243 0)
(0.109753 -0.0488003 0)
(0.104009 -0.0414543 0)
(0.10038 -0.034854 0)
(0.0984521 -0.0288443 0)
(0.0981893 -0.0233768 0)
(0.0987954 -0.0186765 0)
(0.0995465 -0.0153031 0)
(0.100073 -0.0130621 0)
(0.100868 -0.0112956 0)
(0.102206 -0.00935109 0)