/*--------------------------------*- C++ -*----------------------------------*\
| =========                 |                                                 |
| \\      /  F ield         | OpenFOAM: The Open Source CFD Toolbox           |
|  \\    /   O peration     | Version:  2112                                  |
|   \\  /    A nd           | Website:  www.openfoam.com                      |
|    \\/     M anipulation  |                                                 |
\*---------------------------------------------------------------------------*/
FoamFile
{
    version     2.0;
    format      ascii;
    arch        "LSB;label=32;scalar=64";
    class       volScalarField;
    location    "0.46";
    object      nut;
}
// * * * * * * * * * * * * * * * * * * * * * * * * * * * * * * * * * * * * * //

dimensions      [0 2 -1 0 0 0 0];

internalField   nonuniform List<scalar> 
1880
(
3.41766e-11
3.72895e-12
6.0082e-13
3.57685e-14
2.4626e-14
8.60158e-14
9.3427e-15
2.23195e-15
4.19162e-15
7.29863e-15
3.87549e-14
1.11566e-14
3.12994e-14
2.23463e-14
1.55402e-14
1.41144e-13
9.02642e-14
1.61535e-13
3.14459e-13
2.35603e-13
9.4718e-13
2.16641e-12
4.72842e-12
7.58951e-12
2.16005e-11
8.37684e-11
9.07451e-11
2.91822e-10
5.66744e-11
7.73262e-10
7.02577e-09
6.64387e-09
1.17664e-09
1.61027e-10
9.71119e-11
8.80341e-12
2.92036e-11
3.05882e-12
4.80674e-11
7.68675e-12
5.89152e-11
1.58065e-11
3.60296e-11
6.58637e-11
5.14999e-11
4.49437e-11
7.55094e-11
6.10118e-12
4.95429e-11
8.941e-11
3.25272e-11
2.50083e-10
4.18509e-10
1.54636e-10
9.73441e-10
6.36361e-10
9.64306e-10
1.345e-09
1.37838e-09
1.28734e-09
3.02252e-09
2.8377e-09
1.52874e-11
1.8681e-09
2.54187e-12
1.22635e-09
1.74093e-09
2.94264e-09
4.6579e-10
5.41841e-09
2.83795e-09
3.19136e-09
3.10714e-09
5.81022e-09
1.17046e-09
5.70716e-09
1.11707e-09
1.8246e-10
5.82195e-09
5.86702e-10
1.28381e-09
7.82047e-09
9.72194e-10
4.94252e-09
9.20746e-09
4.18329e-09
8.31651e-09
1.1253e-08
9.64507e-09
5.29293e-09
2.44136e-09
5.38571e-10
7.49362e-09
5.1103e-10
1.01948e-08
6.74091e-10
4.02541e-09
5.05052e-10
2.84428e-09
1.66695e-09
1.72817e-08
1.51563e-09
2.9428e-08
2.03939e-09
1.79328e-09
2.16066e-09
1.30591e-08
3.45091e-09
3.02225e-09
4.48551e-09
3.7982e-09
1.11181e-08
6.49673e-09
1.15747e-08
1.13255e-08
1.41738e-08
1.89752e-08
1.59504e-08
2.60336e-08
2.31512e-08
6.80966e-09
1.49589e-09
3.19325e-10
2.9346e-09
1.90849e-10
2.30689e-09
1.09717e-09
2.7006e-09
5.67779e-10
5.72736e-09
2.42341e-08
3.42351e-09
2.87094e-08
2.80745e-09
5.13842e-09
2.63198e-09
2.42352e-08
3.14986e-09
7.76214e-09
4.90608e-09
1.38947e-11
9.49496e-09
4.22529e-10
1.13608e-08
5.01832e-09
1.44066e-08
1.10195e-08
1.97866e-08
1.82081e-08
2.65329e-08
4.7615e-11
2.05076e-10
2.31012e-10
6.03793e-10
5.10042e-10
4.66665e-10
4.92277e-10
2.53095e-10
6.37769e-10
1.70693e-10
8.941e-11
3.14071e-09
5.14253e-09
2.20006e-09
5.46284e-10
2.68126e-09
1.84155e-09
5.81309e-09
1.73344e-09
6.13078e-09
3.50297e-09
7.54254e-09
4.5531e-09
9.48066e-09
8.56226e-09
1.34261e-08
1.33648e-08
1.57488e-08
1.94934e-08
2.07803e-08
3.4406e-11
4.08565e-11
2.46865e-10
6.38553e-10
2.60594e-10
4.89774e-10
9.61122e-10
1.69843e-10
1.52891e-09
1.98724e-11
1.49661e-09
1.35797e-09
1.82859e-09
1.0616e-09
1.95034e-09
1.42668e-09
2.97277e-09
2.54941e-09
3.25069e-09
4.27901e-09
4.25594e-09
6.67487e-09
6.19298e-09
8.38503e-09
9.6577e-09
1.09518e-08
1.27389e-08
1.47469e-08
1.70837e-08
1.99499e-08
1.23547e-10
2.44102e-11
4.02057e-10
1.36567e-10
1.07947e-09
5.45884e-10
1.99878e-09
1.80425e-09
2.4494e-09
1.23747e-09
2.6004e-09
3.11909e-09
3.0357e-09
2.17823e-09
3.03313e-09
2.66544e-09
4.11163e-09
3.61978e-09
4.66759e-09
4.55661e-09
5.73281e-09
6.57974e-09
7.53241e-09
8.37163e-09
1.06233e-08
1.10972e-08
1.38431e-08
1.38975e-08
1.78117e-08
1.77723e-08
2.70218e-11
5.60839e-14
6.8755e-10
1.92202e-10
1.76265e-09
9.40905e-10
2.80845e-09
2.40868e-09
2.82753e-09
1.10911e-09
2.92355e-09
2.178e-09
3.09643e-09
2.19308e-09
3.26259e-09
2.95101e-09
4.36128e-09
3.5884e-09
4.83279e-09
4.90668e-09
5.88889e-09
6.54577e-09
7.80536e-09
8.1494e-09
1.03103e-08
1.09393e-08
1.30712e-08
1.36347e-08
1.61129e-08
1.74639e-08
1.39075e-10
4.28967e-11
9.44361e-10
8.32997e-10
2.19349e-09
1.56856e-09
2.95086e-09
2.6707e-09
2.8088e-09
1.63436e-09
3.04553e-09
2.72104e-09
3.43132e-09
2.78381e-09
3.64173e-09
3.52209e-09
4.70078e-09
4.11337e-09
5.20931e-09
5.34184e-09
6.44794e-09
6.85285e-09
8.2e-09
8.51387e-09
1.04765e-08
1.08626e-08
1.30179e-08
1.33596e-08
1.57869e-08
1.64498e-08
1.55164e-10
5.86415e-11
1.15226e-09
1.30711e-09
2.12389e-09
2.01841e-09
2.61141e-09
2.65592e-09
2.49995e-09
1.85966e-09
2.79853e-09
2.85307e-09
3.28015e-09
3.22843e-09
3.71438e-09
3.92252e-09
4.58238e-09
4.39831e-09
5.27994e-09
5.63322e-09
6.53735e-09
7.03473e-09
8.23055e-09
8.57655e-09
1.01766e-08
1.0801e-08
1.24701e-08
1.31138e-08
1.49558e-08
1.58784e-08
3.54595e-10
3.73551e-10
1.33887e-09
1.41604e-09
2.06702e-09
1.90236e-09
2.56912e-09
2.33087e-09
2.62572e-09
2.19347e-09
3.01988e-09
2.93888e-09
3.65898e-09
3.33867e-09
4.04487e-09
4.03573e-09
4.86194e-09
4.66942e-09
5.54343e-09
5.83661e-09
6.89243e-09
7.18357e-09
8.34548e-09
8.66303e-09
1.0114e-08
1.06572e-08
1.22608e-08
1.29177e-08
1.46009e-08
1.53237e-08
2.22379e-10
4.22278e-10
1.18426e-09
1.45275e-09
1.71617e-09
2.01556e-09
2.13758e-09
2.38101e-09
2.55423e-09
2.40178e-09
2.93401e-09
3.23969e-09
3.43302e-09
3.63912e-09
4.00682e-09
4.28396e-09
4.688e-09
4.94261e-09
5.65556e-09
6.05279e-09
6.85488e-09
7.39386e-09
8.27713e-09
8.71548e-09
9.8236e-09
1.06072e-08
1.19195e-08
1.26775e-08
1.40251e-08
1.47856e-08
8.3604e-11
3.30344e-10
1.27087e-09
1.26832e-09
1.81451e-09
1.92471e-09
2.25247e-09
2.37433e-09
2.64382e-09
2.6712e-09
3.14316e-09
3.25357e-09
3.73864e-09
3.72798e-09
4.25192e-09
4.42706e-09
4.95843e-09
5.17297e-09
5.85671e-09
6.18038e-09
7.15715e-09
7.4927e-09
8.36085e-09
8.77071e-09
9.84391e-09
1.05685e-08
1.17876e-08
1.25132e-08
1.38057e-08
1.45013e-08
8.33863e-12
1.75196e-10
5.44703e-10
1.14339e-09
1.4525e-09
1.93757e-09
1.96475e-09
2.3075e-09
2.49392e-09
2.51529e-09
2.94834e-09
3.26275e-09
3.39011e-09
3.74717e-09
4.21348e-09
4.46976e-09
4.79312e-09
5.25536e-09
5.84809e-09
6.21682e-09
6.9234e-09
7.60443e-09
8.27911e-09
8.69281e-09
9.58137e-09
1.04543e-08
1.14836e-08
1.22075e-08
1.32427e-08
1.39814e-08
7.31245e-11
7.47036e-10
1.32008e-09
1.41099e-09
1.6099e-09
1.87316e-09
1.99764e-09
2.29579e-09
2.4409e-09
2.75397e-09
3.07973e-09
3.22344e-09
3.50497e-09
3.82238e-09
4.20684e-09
4.55968e-09
4.92523e-09
5.3599e-09
5.89385e-09
6.27501e-09
7.08782e-09
7.63511e-09
8.27555e-09
8.78293e-09
9.61475e-09
1.03878e-08
1.13241e-08
1.20463e-08
1.31144e-08
1.38643e-08
1.58981e-12
1.15227e-11
1.19944e-10
7.54305e-10
1.22991e-09
1.36827e-09
1.2125e-09
1.53605e-09
1.65294e-09
1.96053e-09
2.4308e-09
2.95437e-09
2.92186e-09
3.61596e-09
4.07025e-09
4.38017e-09
4.7134e-09
5.32565e-09
5.81262e-09
6.19681e-09
6.76146e-09
7.48555e-09
8.03113e-09
8.4839e-09
9.26134e-09
1.00484e-08
1.07613e-08
1.13864e-08
1.22787e-08
1.3137e-08
2.14384e-09
2.44958e-09
1.62078e-09
1.55059e-09
1.97807e-09
2.31787e-09
3.14306e-09
3.48329e-09
3.33834e-09
2.87093e-09
1.80366e-09
1.41381e-09
6.95096e-10
3.43221e-10
1.36051e-10
8.2895e-11
3.42579e-11
1.84029e-11
4.23407e-12
1.28747e-12
1.18868e-12
1.90089e-13
5.30826e-12
1.29301e-11
1.10543e-11
2.54681e-11
5.38782e-11
1.75949e-10
3.73357e-10
8.25638e-10
5.11151e-09
5.65255e-09
9.65682e-10
1.51493e-10
3.28129e-11
3.45459e-12
7.94659e-13
1.46989e-13
1.81111e-13
3.89153e-13
1.08293e-12
5.96703e-13
7.88087e-13
1.81282e-12
1.70101e-12
1.56854e-12
2.38779e-12
3.161e-12
4.19634e-12
5.00285e-12
5.91832e-12
5.47952e-12
4.70845e-12
6.3241e-12
8.76162e-12
8.568e-12
6.61212e-12
4.80706e-12
3.28695e-12
2.17232e-12
3.46258e-11
4.73536e-12
2.50756e-13
1.33864e-14
5.59019e-14
3.19293e-14
3.59927e-15
8.32522e-17
1.92961e-17
1.6248e-16
6.03498e-16
2.06559e-15
1.58968e-15
1.52804e-15
1.40201e-15
7.6687e-15
1.34224e-14
7.46844e-15
4.48723e-15
1.77755e-14
4.53948e-14
4.89739e-14
2.71691e-14
2.43578e-14
3.73795e-14
6.87344e-14
9.44703e-14
7.69261e-14
2.87763e-14
3.14192e-15
4.52954e-09
1.19434e-09
3.61972e-10
2.22388e-10
1.26743e-11
6.86746e-11
3.52035e-11
1.70489e-10
6.22376e-10
2.05509e-09
4.39177e-09
1.27575e-08
3.98787e-09
8.66021e-09
7.965e-09
1.42985e-08
1.66923e-10
7.98277e-09
3.9266e-12
1.40085e-08
2.01376e-08
3.53403e-08
2.94266e-08
1.19356e-08
1.32786e-08
7.46383e-08
4.32929e-08
5.11219e-08
1.82706e-08
9.02314e-08
3.20088e-08
2.39105e-08
4.2849e-08
4.0805e-08
1.75907e-08
3.6014e-08
4.98343e-08
4.1869e-08
1.77773e-08
3.93572e-08
3.35044e-08
2.99886e-08
3.35634e-08
3.65977e-08
3.18117e-08
3.29145e-08
4.28128e-08
4.08877e-08
3.61481e-08
3.10518e-08
3.45901e-08
2.54121e-08
2.85017e-08
2.98064e-08
3.02134e-08
2.85623e-08
3.54692e-08
3.95509e-08
3.45782e-08
3.08379e-08
2.67361e-08
2.43351e-08
2.53884e-08
2.80251e-08
2.96222e-08
2.81823e-08
3.00994e-08
3.50557e-08
3.30189e-08
2.51162e-08
2.7527e-08
2.22746e-08
2.47282e-08
2.56543e-08
2.71491e-08
2.77317e-08
2.79171e-08
3.24993e-08
3.10008e-08
2.50285e-08
2.32741e-08
2.12573e-08
2.29584e-08
2.38995e-08
2.54331e-08
2.60749e-08
2.60439e-08
2.89176e-08
2.76748e-08
2.36506e-08
2.22868e-08
1.97529e-08
2.20191e-08
2.27893e-08
2.34551e-08
2.44743e-08
2.46847e-08
2.60826e-08
2.52196e-08
2.22137e-08
1.98904e-08
1.8882e-08
2.0671e-08
2.1393e-08
2.21565e-08
2.31061e-08
2.29753e-08
2.36545e-08
2.31679e-08
2.08325e-08
1.88089e-08
1.78342e-08
1.96818e-08
2.04386e-08
2.07461e-08
2.14966e-08
2.18061e-08
2.18732e-08
2.10916e-08
1.92334e-08
1.72049e-08
1.70346e-08
1.85807e-08
1.9389e-08
1.97283e-08
2.03212e-08
2.03627e-08
2.02788e-08
1.95554e-08
1.79647e-08
1.64888e-08
1.63646e-08
1.77504e-08
1.83734e-08
1.87037e-08
1.91409e-08
1.92319e-08
1.88353e-08
1.81791e-08
1.68141e-08
1.53602e-08
1.56639e-08
1.68356e-08
1.75377e-08
1.78343e-08
1.81444e-08
1.80354e-08
1.77325e-08
1.69549e-08
1.56898e-08
1.50728e-08
1.52373e-08
1.61873e-08
1.66419e-08
1.69851e-08
1.71894e-08
1.71127e-08
1.67264e-08
1.61723e-08
1.51455e-08
1.41269e-08
1.43943e-08
1.53467e-08
1.55247e-08
1.59963e-08
1.5666e-08
1.57985e-08
1.48019e-08
1.4629e-08
1.27425e-08
1.26685e-09
8.15669e-10
1.28207e-09
1.01023e-09
1.48822e-09
1.24931e-09
1.69784e-09
1.37202e-09
1.63099e-09
1.15753e-09
1.82342e-12
1.74444e-12
4.56768e-13
5.39846e-13
5.75512e-14
1.08849e-12
1.4373e-12
3.84015e-12
4.91709e-12
5.95124e-12
1.33545e-14
8.91179e-19
1.14374e-15
1.10806e-15
4.16956e-16
1.43605e-15
9.4872e-16
1.14153e-14
1.42996e-14
1.5996e-14
4.90933e-08
4.63333e-08
1.97259e-11
3.10418e-08
7.80741e-08
6.8997e-08
2.97296e-08
6.46669e-09
9.63935e-10
2.90828e-10
8.53866e-11
4.97563e-11
4.93393e-11
6.01322e-11
1.56332e-10
4.07922e-10
1.81792e-09
5.52325e-09
2.86524e-08
1.11403e-07
6.83622e-08
1.09417e-08
1.63966e-09
3.00248e-10
6.49093e-11
1.52452e-11
3.48699e-12
7.21575e-13
2.79378e-13
3.1425e-13
4.54672e-13
3.50488e-13
5.9685e-14
5.41153e-15
1.55818e-13
5.16438e-13
5.46006e-13
3.03716e-13
1.48198e-13
8.05679e-14
6.39273e-08
6.52717e-08
1.12839e-08
2.04668e-08
8.38067e-09
6.70644e-08
1.64165e-07
7.11691e-08
1.09196e-09
6.38265e-07
3.08492e-07
6.89218e-09
5.30556e-11
3.04876e-09
8.06347e-09
1.03221e-08
2.68738e-08
4.32613e-08
5.26566e-08
6.14739e-08
6.40675e-08
5.95518e-08
5.08479e-08
3.92252e-08
2.59115e-08
1.37876e-08
5.60761e-09
1.86698e-09
5.81727e-10
2.42925e-10
1.45911e-10
1.1379e-10
7.60498e-11
3.53247e-11
5.69874e-12
3.10683e-13
2.05526e-12
4.51338e-12
6.71969e-12
3.46641e-12
1.7972e-08
7.58111e-07
1.52332e-06
1.18424e-08
5.65318e-08
1.12975e-07
4.56639e-08
5.0258e-07
7.07402e-07
7.60357e-07
3.17943e-07
3.60399e-08
1.69306e-09
7.2697e-11
1.573e-10
4.75008e-10
3.18428e-09
1.09145e-08
2.27424e-08
3.57733e-08
4.51941e-08
4.9368e-08
4.95055e-08
4.69963e-08
4.28315e-08
3.58843e-08
2.64156e-08
1.73667e-08
1.145e-08
7.86919e-09
5.4601e-09
3.43995e-09
2.17901e-09
1.6664e-09
8.56737e-10
4.38437e-10
2.67543e-11
7.16947e-13
1.9422e-11
2.40354e-11
8.70407e-08
3.90237e-08
3.9729e-07
1.64006e-08
1.35973e-07
5.58998e-09
7.82998e-07
9.37525e-07
9.85636e-07
1.0367e-06
5.61364e-07
9.57057e-08
5.01105e-09
3.37319e-10
4.99283e-12
5.63252e-12
4.37422e-10
5.27178e-09
1.71595e-08
3.5318e-08
4.65389e-08
4.94492e-08
4.9866e-08
4.64392e-08
4.18316e-08
3.70337e-08
2.98877e-08
2.15054e-08
1.51847e-08
1.31389e-08
1.29412e-08
1.22696e-08
1.01986e-08
8.28907e-09
6.79883e-09
6.95327e-09
3.23295e-09
4.511e-09
2.05303e-09
5.44451e-10
1.45898e-07
2.68488e-08
1.24888e-08
1.39802e-07
9.73292e-08
4.42444e-08
1.38084e-06
1.09629e-06
1.10557e-06
1.22096e-06
8.36407e-07
1.99548e-07
1.70749e-08
1.77636e-09
7.91182e-10
4.58775e-10
2.94897e-12
1.22005e-09
8.68978e-09
3.22146e-08
5.83832e-08
6.13314e-08
5.60338e-08
4.80907e-08
3.75383e-08
2.70646e-08
1.62733e-08
9.49747e-09
8.02166e-09
6.30344e-09
3.70685e-09
1.90455e-09
7.58674e-10
5.57919e-10
6.67266e-12
8.86149e-10
3.26593e-11
8.93429e-13
2.9876e-12
4.62959e-12
1.08378e-08
4.15742e-08
8.65678e-08
1.75398e-07
8.80606e-08
3.94248e-11
3.33386e-07
5.85087e-07
1.00267e-06
1.29329e-06
1.0405e-06
3.64853e-07
5.55803e-08
8.17457e-09
3.94027e-09
3.39826e-09
7.1063e-10
4.05621e-10
8.63471e-09
2.54662e-08
5.46198e-08
6.05104e-08
4.3669e-08
2.23164e-08
6.34598e-09
1.50059e-09
1.31504e-10
5.34624e-11
1.37288e-09
6.15565e-09
5.27876e-09
5.05115e-09
8.38948e-10
3.46004e-11
7.30381e-10
4.11584e-08
3.05443e-09
8.10059e-11
2.68071e-11
4.10742e-11
2.28563e-09
9.22502e-09
1.69025e-07
2.5619e-07
1.53818e-07
4.32145e-12
5.10726e-07
9.03122e-07
1.23752e-06
1.41383e-06
1.20158e-06
5.29672e-07
1.29097e-07
3.39527e-08
2.08886e-08
9.69924e-09
1.39538e-09
1.14893e-10
1.73637e-08
4.79578e-08
5.87798e-08
5.00242e-08
2.57128e-08
1.02899e-08
1.45463e-09
2.57355e-10
1.15711e-09
4.67426e-09
9.24732e-09
1.24547e-08
7.4783e-09
1.50111e-09
4.68534e-09
5.72497e-09
7.44201e-10
4.00803e-10
1.46684e-09
9.28148e-10
2.48174e-10
3.41457e-08
1.95572e-08
1.64428e-08
1.31746e-09
7.36868e-08
2.26388e-07
1.13349e-07
3.40585e-10
2.81134e-07
1.36876e-06
1.79115e-06
1.64173e-06
1.06584e-06
4.41614e-07
1.40715e-07
7.71351e-08
3.47066e-08
2.55618e-10
6.91765e-09
4.42117e-08
6.64265e-08
5.67326e-08
4.47554e-08
3.0713e-08
2.63236e-08
2.69461e-08
2.5826e-08
2.32038e-08
2.03303e-08
2.01687e-08
1.81998e-08
1.37166e-08
5.18325e-09
2.13889e-09
4.53974e-09
6.87798e-09
7.8777e-09
7.25632e-09
5.31959e-09
4.13849e-11
5.2939e-09
7.29685e-07
5.38971e-10
1.39064e-08
3.98006e-09
6.07698e-09
5.66605e-11
7.22658e-10
8.42273e-08
7.41392e-07
1.39822e-06
1.53771e-06
1.19367e-06
6.00219e-07
2.76817e-07
1.59974e-07
4.67316e-08
5.21241e-10
5.42998e-08
6.154e-08
5.74671e-08
4.74391e-08
4.31117e-08
3.99291e-08
3.67504e-08
3.44868e-08
2.83058e-08
1.69685e-08
9.45718e-09
1.20823e-08
1.70044e-08
1.62087e-08
1.14728e-08
7.5235e-09
6.96683e-09
5.36652e-09
6.22191e-09
3.53412e-09
8.67646e-10
2.47087e-10
1.28137e-13
1.89203e-08
1.58861e-07
2.91475e-08
9.07419e-09
3.10032e-09
1.8951e-09
4.79735e-08
2.87075e-07
8.81646e-07
1.30632e-06
1.4043e-06
1.26833e-06
8.6591e-07
3.46789e-07
5.47671e-08
4.28521e-09
6.43741e-08
6.8052e-08
3.95459e-08
3.9358e-08
4.8139e-08
4.07765e-08
3.41284e-08
2.76667e-08
2.64439e-08
2.88849e-08
2.58727e-08
1.66005e-08
1.01342e-08
1.18899e-08
5.59546e-09
1.84059e-10
9.99679e-09
4.86676e-11
5.6912e-09
2.90269e-09
7.15057e-09
4.98671e-09
5.54864e-09
2.61371e-08
3.74957e-08
2.84006e-08
1.4983e-08
3.20924e-08
1.82022e-09
9.82518e-10
7.53602e-08
6.84042e-07
1.07189e-06
1.10195e-06
1.04928e-06
9.46626e-07
5.1827e-07
1.05322e-09
4.66663e-08
7.36269e-08
7.63139e-08
6.73513e-08
5.6723e-08
4.48253e-08
3.80344e-08
3.39366e-08
3.34719e-08
3.07676e-08
2.63743e-08
2.10357e-08
9.07235e-09
1.74424e-10
8.06293e-10
1.33543e-09
2.42742e-08
4.63334e-08
5.74591e-08
2.82998e-09
4.70168e-12
4.3412e-09
3.25292e-09
6.18054e-10
5.08557e-09
3.00051e-09
4.07491e-08
2.55241e-08
3.24979e-08
3.15332e-08
5.36528e-08
3.62266e-08
2.26965e-08
4.49527e-09
4.15434e-09
2.20329e-09
2.77745e-09
1.21531e-08
4.14317e-08
6.38703e-08
6.79326e-08
6.35405e-08
5.78714e-08
5.12467e-08
4.67035e-08
4.36912e-08
3.74821e-08
2.99659e-08
2.49157e-08
1.34908e-08
6.3699e-09
1.34391e-08
1.51465e-08
9.35965e-09
3.1269e-09
5.61089e-09
9.84682e-09
8.99864e-09
9.68115e-09
6.83772e-09
2.82185e-10
2.3509e-11
7.79418e-10
1.0002e-09
9.38977e-08
1.44099e-08
3.14468e-08
2.79491e-08
2.81798e-08
3.05205e-08
4.22649e-08
4.67975e-08
4.60334e-08
4.73318e-08
5.24999e-08
5.47417e-08
5.57248e-08
5.90728e-08
6.32526e-08
5.83375e-08
5.32054e-08
5.25422e-08
4.7347e-08
4.50093e-08
4.26379e-08
3.8713e-08
3.54871e-08
3.13542e-08
2.9347e-08
2.68698e-08
2.26612e-08
1.99105e-08
1.89399e-08
1.59426e-08
1.39249e-08
1.22598e-08
1.09084e-08
9.25997e-09
5.11055e-09
5.37311e-09
2.78507e-09
4.10959e-09
4.15559e-09
6.60952e-09
4.18195e-09
1.50509e-09
3.27748e-08
2.54334e-08
2.70075e-08
3.1046e-08
3.77302e-08
4.22016e-08
4.50433e-08
4.63686e-08
5.2024e-08
5.48394e-08
5.14086e-08
5.39681e-08
5.3828e-08
5.08333e-08
4.2616e-08
4.19037e-08
4.33417e-08
4.14401e-08
3.80057e-08
3.43205e-08
3.0766e-08
2.86606e-08
2.61345e-08
2.38862e-08
2.17899e-08
1.93772e-08
1.75221e-08
1.45011e-08
1.32023e-08
1.07485e-08
9.38998e-09
7.21367e-09
9.4282e-10
1.1519e-09
2.09333e-09
9.55686e-09
3.19237e-08
6.89813e-08
4.21824e-09
8.43453e-09
2.51281e-08
2.21454e-08
2.61948e-08
2.91238e-08
3.15596e-08
3.61038e-08
3.78555e-08
3.94847e-08
4.34667e-08
4.54222e-08
4.64822e-08
4.64514e-08
4.5257e-08
4.43897e-08
3.99699e-08
3.37109e-08
3.64183e-08
3.69864e-08
3.2717e-08
3.10091e-08
2.8985e-08
2.58124e-08
2.44354e-08
2.17501e-08
1.70969e-08
1.62853e-08
1.60435e-08
1.30569e-08
8.15656e-09
8.53192e-09
8.69082e-09
7.098e-09
3.58552e-09
6.99085e-09
4.23736e-09
2.13378e-09
1.24275e-11
9.95572e-10
2.64484e-09
1.52263e-11
2.32332e-08
2.31658e-08
2.67124e-08
2.82254e-08
2.82435e-08
2.9591e-08
3.01171e-08
3.31874e-08
3.64658e-08
3.71471e-08
4.01872e-08
3.89465e-08
3.74836e-08
3.57083e-08
3.45282e-08
3.23973e-08
2.9032e-08
3.08638e-08
3.00602e-08
2.75902e-08
2.69923e-08
2.46083e-08
2.20513e-08
2.10574e-08
1.98914e-08
1.733e-08
1.62655e-08
1.41641e-08
1.20488e-08
9.96886e-09
9.43995e-09
8.60989e-09
7.84735e-09
6.50421e-09
3.93541e-09
3.02948e-09
1.20687e-09
1.46709e-09
4.2343e-09
1.43551e-08
2.06103e-08
2.16535e-08
2.48186e-08
2.63622e-08
2.57533e-08
2.523e-08
2.5479e-08
2.89384e-08
3.26549e-08
3.22719e-08
3.35446e-08
3.31529e-08
3.15654e-08
2.99504e-08
2.92895e-08
2.97498e-08
2.71786e-08
2.46456e-08
2.70191e-08
2.65647e-08
2.38156e-08
2.30695e-08
2.16706e-08
1.94995e-08
1.88856e-08
1.75776e-08
1.50785e-08
1.31866e-08
1.25853e-08
1.14354e-08
9.25961e-09
7.19372e-09
6.41026e-09
4.78741e-09
2.33445e-09
2.7487e-09
7.37e-10
1.68598e-09
4.81032e-10
5.26641e-11
1.91725e-08
2.04419e-08
2.2648e-08
2.37447e-08
2.3414e-08
2.23852e-08
2.24182e-08
2.47681e-08
2.78154e-08
2.92597e-08
2.85983e-08
2.81948e-08
2.62822e-08
2.55706e-08
2.47533e-08
2.44689e-08
2.47205e-08
2.35212e-08
2.17853e-08
2.32746e-08
2.23102e-08
2.07945e-08
2.05825e-08
1.95732e-08
1.74813e-08
1.60764e-08
1.53251e-08
1.36931e-08
1.17968e-08
1.02154e-08
9.12322e-09
7.00421e-09
6.37964e-09
4.92937e-09
4.22641e-09
4.58449e-09
3.52533e-09
2.4059e-09
9.96422e-10
4.79544e-10
1.83279e-08
1.90956e-08
2.03675e-08
2.11388e-08
2.05112e-08
1.99968e-08
2.02587e-08
2.13795e-08
2.30842e-08
2.44078e-08
2.44275e-08
2.41608e-08
2.30215e-08
2.17244e-08
2.1864e-08
2.0741e-08
2.04045e-08
2.1978e-08
2.10376e-08
1.96233e-08
2.08508e-08
2.11034e-08
1.96191e-08
1.85924e-08
1.77908e-08
1.63319e-08
1.49238e-08
1.3702e-08
1.23109e-08
1.02127e-08
9.36514e-09
8.22226e-09
7.6116e-09
6.28577e-09
4.2687e-09
3.75006e-09
2.91035e-09
3.26015e-09
3.24877e-09
2.24427e-09
1.69251e-08
1.72711e-08
1.82642e-08
1.88071e-08
1.82333e-08
1.75292e-08
1.78829e-08
1.88395e-08
1.95222e-08
2.03985e-08
2.07484e-08
1.98825e-08
1.99558e-08
1.93251e-08
1.79403e-08
1.84123e-08
1.82637e-08
1.75688e-08
1.88118e-08
1.94261e-08
1.89247e-08
1.90259e-08
1.88201e-08
1.77637e-08
1.68926e-08
1.60197e-08
1.4544e-08
1.26612e-08
1.16135e-08
1.04656e-08
9.35058e-09
7.39406e-09
6.22626e-09
5.13603e-09
4.89422e-09
4.30983e-09
3.61718e-09
2.93612e-09
1.67401e-09
1.47516e-09
1.61216e-08
1.62912e-08
1.64455e-08
1.64524e-08
1.62401e-08
1.57479e-08
1.54865e-08
1.61719e-08
1.70039e-08
1.71167e-08
1.73501e-08
1.75156e-08
1.66503e-08
1.64473e-08
1.61717e-08
1.53212e-08
1.56185e-08
1.61031e-08
1.62601e-08
1.72556e-08
1.80484e-08
1.77911e-08
1.75244e-08
1.70997e-08
1.60504e-08
1.44889e-08
1.34377e-08
1.20301e-08
1.06886e-08
8.85033e-09
7.90173e-09
6.76538e-09
6.01024e-09
4.84077e-09
3.83205e-09
3.16695e-09
2.70368e-09
2.55191e-09
2.49003e-09
2.24538e-09
1.48246e-08
1.46835e-08
1.46753e-08
1.45585e-08
1.40571e-08
1.37093e-08
1.36265e-08
1.36299e-08
1.41705e-08
1.48262e-08
1.47799e-08
1.49315e-08
1.49284e-08
1.41186e-08
1.38379e-08
1.37227e-08
1.30487e-08
1.3291e-08
1.41145e-08
1.40058e-08
1.38487e-08
1.36998e-08
1.27228e-08
1.0985e-08
9.55528e-09
8.05761e-09
6.47812e-09
4.81447e-09
3.8938e-09
2.9765e-09
2.45138e-09
1.52772e-09
1.23423e-09
7.43753e-10
8.29513e-10
7.09876e-10
6.49996e-10
6.55728e-10
3.99114e-10
5.64863e-10
1.44631e-08
1.41687e-08
1.37767e-08
1.32674e-08
1.27863e-08
1.23301e-08
1.2132e-08
1.23395e-08
1.26482e-08
1.31864e-08
1.38559e-08
1.39533e-08
1.38717e-08
1.35604e-08
1.20803e-08
9.9946e-09
8.02471e-09
5.36227e-09
2.9252e-09
1.50045e-09
6.80764e-10
1.90883e-10
4.16025e-11
5.2024e-12
1.6585e-12
6.16227e-12
8.15824e-12
1.26772e-11
7.9292e-12
6.97383e-12
1.23584e-12
2.6052e-13
4.2222e-13
2.40593e-12
9.819e-12
1.05051e-11
2.58429e-11
3.62944e-11
6.50012e-11
1.16522e-10
1.22943e-08
1.21974e-08
1.20834e-08
1.18203e-08
1.13863e-08
1.10852e-08
1.10059e-08
1.10751e-08
1.14517e-08
1.17657e-08
1.16673e-08
1.12929e-08
9.86619e-09
7.23868e-09
4.42382e-09
1.82349e-09
2.60137e-10
3.32543e-13
4.68223e-11
3.64422e-10
8.10564e-10
1.00034e-09
1.0388e-09
1.04291e-09
8.75649e-10
6.23498e-10
3.92331e-10
2.44492e-10
1.25781e-10
5.71446e-11
1.60907e-11
5.1224e-12
4.16395e-13
3.23518e-14
4.96692e-13
1.88407e-12
5.40354e-12
8.71062e-12
8.95987e-12
1.04617e-11
1.15002e-09
1.16625e-09
1.27086e-09
1.44093e-09
1.62419e-09
1.82592e-09
2.03678e-09
2.24363e-09
2.45446e-09
2.57581e-09
2.47555e-09
2.1647e-09
1.64387e-09
9.87053e-10
4.07373e-10
8.5101e-11
1.3781e-12
2.18245e-11
1.4451e-10
3.04623e-10
3.71648e-10
3.29027e-10
2.57726e-10
2.06581e-10
1.5358e-10
1.00612e-10
5.54941e-11
2.98043e-11
1.43257e-11
5.82783e-12
1.13206e-12
1.0928e-13
3.90904e-14
1.71818e-13
6.71873e-13
9.82647e-13
2.31674e-12
2.43477e-12
3.61534e-12
2.42451e-12
6.85007e-12
7.41295e-12
1.0717e-11
1.6534e-11
2.51132e-11
3.73044e-11
5.03417e-11
6.37778e-11
8.30448e-11
1.00897e-10
1.113e-10
1.14132e-10
9.86309e-11
6.64571e-11
3.26566e-11
7.53723e-12
4.94744e-13
5.89586e-12
2.64071e-11
5.37384e-11
6.90778e-11
6.46375e-11
4.73107e-11
3.06285e-11
1.72469e-11
8.05713e-12
2.9315e-12
9.99595e-13
2.2059e-13
9.80495e-15
1.36198e-14
1.42008e-13
4.73892e-13
6.75907e-13
1.06601e-12
9.90509e-13
1.17975e-12
8.79987e-13
7.49185e-13
4.49586e-13
2.45636e-14
1.43182e-14
3.41774e-14
7.25326e-14
1.33359e-13
2.37631e-13
4.03193e-13
6.22977e-13
9.35387e-13
1.39846e-12
1.98357e-12
2.54129e-12
2.85025e-12
2.90159e-12
1.81171e-12
2.20527e-13
2.23064e-13
3.27391e-12
8.7124e-12
1.00054e-11
5.76293e-12
1.38587e-12
8.86235e-14
3.59331e-15
1.48966e-13
3.7078e-13
5.15299e-13
5.13969e-13
5.10905e-13
4.24947e-13
3.45095e-13
2.31886e-13
1.61448e-13
9.44892e-14
5.86162e-14
2.9241e-14
1.72598e-14
6.69811e-15
8.94258e-15
2.81725e-14
)
;

boundaryField
{
    inlet
    {
        type            calculated;
        value           nonuniform List<scalar> 
20
(
1.62836e-34
6.83434e-33
6.25333e-33
1.18591e-32
9.90147e-34
1.98462e-34
1.04426e-35
1.28035e-36
2.37515e-35
1.08263e-36
1.80537e-36
9.77576e-35
6.52898e-34
4.78058e-34
2.06802e-34
5.93453e-34
1.15407e-34
5.74609e-33
6.12603e-33
1.49296e-34
)
;
    }
    outlet
    {
        type            calculated;
        value           nonuniform List<scalar> 
27
(
7.81096e-35
1.22201e-32
1.05259e-34
1.43725e-32
8.57723e-38
2.99703e-33
3.18391e-36
1.17651e-32
9.73115e-34
3.39568e-33
1.58204e-36
1.15586e-32
8.2614e-33
1.27238e-32
5.26829e-33
1.00216e-33
4.56752e-37
2.68724e-35
7.96669e-35
1.22814e-35
3.76737e-35
1.99481e-34
6.2828e-35
8.8742e-33
7.44082e-33
3.35334e-33
4.17394e-40
)
;
    }
    lowerWall
    {
        type            fixedValue;
        value           uniform 0;
    }
    upperWall
    {
        type            fixedValue;
        value           uniform 0;
    }
    defaultFaces
    {
        type            empty;
    }
}


// ************************************************************************* //
