/*--------------------------------*- C++ -*----------------------------------*\
| =========                 |                                                 |
| \\      /  F ield         | OpenFOAM: The Open Source CFD Toolbox           |
|  \\    /   O peration     | Version:  2112                                  |
|   \\  /    A nd           | Website:  www.openfoam.com                      |
|    \\/     M anipulation  |                                                 |
\*---------------------------------------------------------------------------*/
FoamFile
{
    version     2.0;
    format      ascii;
    arch        "LSB;label=32;scalar=64";
    class       volScalarField;
    location    "0.46";
    object      p;
}
// * * * * * * * * * * * * * * * * * * * * * * * * * * * * * * * * * * * * * //

dimensions      [0 2 -2 0 0 0 0];

internalField   nonuniform List<scalar> 
1880
(
0.00312082
0.00298793
0.00289475
0.00284614
0.00281836
0.00279687
0.00277868
0.00276041
0.00274619
0.00273249
0.00272465
0.00271832
0.00271475
0.00271898
0.00272038
0.00273244
0.00274824
0.00276589
0.00279697
0.00283128
0.00287188
0.00292749
0.00298712
0.003048
0.00313358
0.00320269
0.00328287
0.00333871
0.00338141
0.00332426
0.00294169
0.00290994
0.00286838
0.00283253
0.00280341
0.002782
0.00276373
0.00275052
0.00273537
0.00272545
0.00271419
0.00270863
0.00270312
0.0027065
0.00270626
0.0027162
0.00273028
0.00274406
0.00277307
0.002802
0.00283572
0.00289189
0.00293499
0.00299757
0.00306558
0.00313081
0.00319726
0.00325453
0.0032986
0.003311
0.00290716
0.00288756
0.00285646
0.00282504
0.00279767
0.00277522
0.00275706
0.00274263
0.00272752
0.00271771
0.00270516
0.002699
0.00269084
0.00269143
0.00268956
0.00269462
0.00270577
0.00271401
0.002737
0.00275712
0.00278409
0.00282331
0.00285632
0.00289929
0.00295018
0.00299237
0.00303441
0.00307595
0.00309843
0.00311635
0.00284966
0.0028392
0.00281977
0.00280054
0.00277871
0.00276019
0.00274249
0.00272736
0.00271328
0.00270155
0.00269112
0.00268087
0.00267414
0.00266928
0.00266693
0.00266643
0.00267257
0.00267689
0.00269052
0.00270227
0.00272052
0.00274451
0.00276425
0.00279073
0.00282084
0.00283706
0.00286185
0.00287086
0.00286967
0.00285521
0.00282018
0.0028136
0.00279919
0.00278428
0.00276657
0.00275003
0.00273212
0.00271644
0.00270092
0.00268863
0.00267689
0.00266499
0.00265607
0.00264789
0.00264253
0.00263716
0.00263781
0.00263773
0.00264101
0.00264687
0.00265359
0.00266467
0.0026711
0.00268117
0.0026891
0.0026901
0.00268556
0.00266969
0.00264096
0.0025977
0.00279228
0.00278692
0.00277544
0.00276282
0.0027491
0.00273383
0.00271825
0.0027013
0.00268589
0.00267179
0.00265954
0.00264565
0.00263447
0.00262386
0.00261434
0.00260504
0.00260003
0.00259394
0.00258997
0.00258648
0.00258398
0.00258274
0.00257639
0.00256967
0.00256214
0.00254208
0.00251674
0.0024784
0.00242535
0.00235469
0.00277076
0.00276689
0.00275735
0.00274629
0.0027344
0.00272039
0.00270568
0.00268835
0.00267198
0.00265643
0.00264244
0.00262661
0.00261255
0.00259931
0.00258558
0.00257234
0.00256124
0.00255008
0.00253782
0.00252614
0.00251448
0.00250179
0.00248302
0.00246296
0.0024383
0.00240241
0.00235895
0.00229982
0.00222522
0.00213553
0.00275352
0.00274965
0.0027419
0.00273112
0.00272028
0.00270648
0.00269222
0.00267462
0.002657
0.00264023
0.00262424
0.0026063
0.00258962
0.00257318
0.00255588
0.00253809
0.00252174
0.0025046
0.00248545
0.00246566
0.00244534
0.00242192
0.00239291
0.00235881
0.0023212
0.00227123
0.00221108
0.00213531
0.00204486
0.0019372
0.00273961
0.00273621
0.00272933
0.00271863
0.00270803
0.002694
0.00267964
0.00266157
0.00264257
0.00262458
0.0026063
0.00258632
0.0025668
0.00254719
0.00252635
0.00250406
0.00248252
0.00245996
0.00243403
0.0024067
0.00237817
0.00234551
0.00230632
0.00226101
0.00221134
0.00214879
0.00207502
0.00198623
0.00188139
0.00176071
0.0027295
0.00272579
0.00271946
0.00270878
0.00269761
0.00268315
0.00266784
0.00264925
0.00262882
0.00260916
0.00258893
0.00256644
0.0025443
0.00252155
0.00249701
0.00247048
0.00244413
0.00241616
0.00238412
0.00234965
0.00231393
0.0022726
0.00222463
0.00216935
0.00210903
0.00203634
0.00195107
0.001851
0.00173587
0.00160515
0.00272258
0.00271875
0.00271254
0.00270154
0.00268939
0.002674
0.00265735
0.00263796
0.00261583
0.00259453
0.00257224
0.00254719
0.00252255
0.00249661
0.00246852
0.00243804
0.00240696
0.00237414
0.00233634
0.00229536
0.00225315
0.00220428
0.00214813
0.00208449
0.00201513
0.00193375
0.00183898
0.00173019
0.00160704
0.00146854
0.0027194
0.00271522
0.00270854
0.0026971
0.00268352
0.00266693
0.00264864
0.00262798
0.00260431
0.00258105
0.00255681
0.00252926
0.002502
0.00247322
0.00244151
0.00240723
0.00237195
0.00233445
0.00229147
0.00224465
0.00219655
0.00214108
0.00207763
0.00200689
0.00192974
0.0018411
0.00173895
0.00162306
0.0014939
0.00135002
0.00271993
0.00271527
0.00270764
0.00269514
0.00267968
0.0026613
0.00264098
0.00261875
0.00259345
0.00256821
0.00254215
0.00251222
0.00248248
0.00245104
0.00241583
0.00237814
0.00233896
0.00229709
0.00224957
0.00219755
0.00214418
0.00208314
0.00201315
0.00193639
0.00185297
0.00175823
0.00165011
0.00152877
0.00139509
0.00124714
0.00272516
0.00271999
0.00271117
0.00269737
0.00267984
0.00265934
0.00263688
0.00261264
0.00258564
0.0025583
0.00253011
0.0024979
0.0024654
0.0024313
0.0023928
0.00235173
0.00230907
0.0022631
0.0022114
0.00215494
0.00209674
0.00203079
0.00195522
0.00187345
0.00178496
0.00168508
0.00157226
0.00144682
0.00130981
0.00115945
0.00273483
0.00272828
0.00271692
0.00270031
0.00267959
0.00265621
0.00263126
0.00260496
0.00257642
0.00254734
0.0025174
0.00248344
0.00244868
0.00241231
0.00237098
0.00232701
0.00228142
0.00223182
0.00217652
0.00211638
0.00205383
0.00198363
0.00190353
0.0018176
0.00172504
0.00162092
0.00150431
0.00137595
0.00123656
0.00108419
0.00275379
0.00274576
0.0027313
0.00271086
0.00268611
0.00265931
0.00263178
0.00260338
0.00257331
0.0025425
0.00251043
0.00247436
0.00243695
0.00239781
0.00235362
0.00230667
0.00225815
0.0022051
0.00214641
0.0020831
0.00201654
0.00194245
0.00185879
0.00176946
0.00167338
0.00156566
0.00144613
0.00131591
0.00117509
0.00102194
0.00277426
0.00276203
0.00274166
0.00271561
0.00268669
0.00265715
0.00262785
0.00259802
0.00256671
0.00253437
0.00250022
0.00246224
0.00242274
0.00238143
0.00233524
0.00228627
0.00223561
0.00217996
0.0021187
0.00205301
0.00198304
0.00190557
0.00181945
0.00172755
0.00162856
0.00151817
0.00139675
0.00126536
0.00112329
0.000968726
0.00282752
0.00280492
0.00277062
0.00273314
0.00269725
0.00266396
0.00263285
0.00260138
0.00256829
0.00253381
0.0024972
0.00245741
0.00241599
0.00237252
0.0023248
0.00227408
0.00222098
0.00216266
0.00209882
0.00203044
0.00195704
0.00187653
0.00178837
0.0016938
0.00159172
0.00147928
0.00135688
0.00122514
0.00108297
0.00092864
0.0028563
0.00282154
0.00277661
0.00273404
0.00269623
0.00266285
0.00263137
0.00259861
0.00256411
0.00252816
0.00248968
0.00244869
0.00240597
0.00236066
0.00231154
0.00225909
0.0022035
0.00214316
0.00207769
0.00200727
0.00193088
0.00184844
0.00176027
0.00166463
0.00156016
0.00144627
0.0013232
0.00119096
0.0010485
0.000893842
0.00303588
0.00289599
0.00279869
0.00274458
0.00270855
0.00267497
0.00264051
0.00260443
0.0025673
0.00252941
0.00248996
0.00244877
0.00240531
0.00235891
0.00230914
0.00225585
0.0021988
0.0021374
0.00207091
0.0019993
0.0019219
0.00183861
0.00174882
0.00165139
0.00154563
0.00143145
0.00130863
0.00117697
0.00103554
0.000883042
0.00345282
0.00353918
0.00317542
0.00283649
0.00227494
0.0017116
0.000798884
5.42133e-05
-0.00129748
-0.00262209
0.00346624
0.00336825
0.00284855
0.00245137
0.0018255
0.0012111
0.000354794
-0.000534033
-0.00163725
-0.0029227
0.00315684
0.00295458
0.00250123
0.00216145
0.0015577
0.00104566
0.000191771
-0.000540657
-0.00158601
-0.00248581
0.00285363
0.00263074
0.00222971
0.0018027
0.00127196
0.000685452
-2.60971e-05
-0.000792814
-0.00164282
-0.0024959
0.00254396
0.00231003
0.00190298
0.00152976
0.00102085
0.00050753
-0.00014014
-0.000838725
-0.00159048
-0.00232649
0.00227683
0.00202692
0.00167514
0.00127639
0.000826022
0.000303001
-0.000272782
-0.000925763
-0.00159147
-0.00224813
0.00202968
0.00178874
0.00144023
0.00106716
0.000642542
0.000164
-0.000361841
-0.000953635
-0.00155022
-0.00213187
0.00181612
0.00157523
0.00125513
0.00088913
0.000498473
4.55848e-05
-0.000438976
-0.000979502
-0.00152396
-0.00204883
0.00162531
0.00139334
0.00108573
0.000739537
0.000370214
-4.84363e-05
-0.000498014
-0.000991596
-0.00148732
-0.00196166
0.00146058
0.00123499
0.000945476
0.000614844
0.00026775
-0.000122252
-0.000541063
-0.000994688
-0.00144978
-0.00188565
0.00131598
0.00109801
0.000822464
0.000509501
0.000180129
-0.000183604
-0.000575189
-0.000993888
-0.00141197
-0.00181394
0.00119272
0.000981666
0.000720481
0.00042353
0.000110908
-0.000229995
-0.000596752
-0.000984995
-0.00137151
-0.00174615
0.0010853
0.000880201
0.000631455
0.000349948
5.20373e-05
-0.000269457
-0.000613952
-0.000975293
-0.00133435
-0.00168435
0.000995806
0.000796583
0.000559552
0.000292213
8.07288e-06
-0.00029649
-0.00062084
-0.00095902
-0.00129555
-0.00162555
0.000917911
0.000722632
0.00049547
0.000240823
-3.09548e-05
-0.000320939
-0.00062747
-0.000945302
-0.00126221
-0.00157393
0.000855725
0.000665257
0.000447399
0.000204198
-5.6231e-05
-0.00033344
-0.000624794
-0.000925845
-0.00122714
-0.00152494
0.000800752
0.000612426
0.000401637
0.000168226
-8.19065e-05
-0.000347648
-0.000625456
-0.000911747
-0.00119914
-0.00148395
0.00076177
0.000577356
0.000373129
0.000148019
-9.34625e-05
-0.000349789
-0.000617052
-0.000892346
-0.00116988
-0.00144594
0.000726313
0.000543419
0.000343558
0.000125421
-0.00010806
-0.00035549
-0.000612858
-0.000878269
-0.00114723
-0.0014155
0.000718023
0.000536051
0.000337493
0.000122344
-0.000107308
-0.000350591
-0.000604188
-0.000866725
-0.00113335
-0.00140209
-0.00530488
-0.00567612
-0.00586621
-0.0059568
-0.00608687
-0.00618621
-0.00756913
-0.0100734
-0.0122142
-0.0133915
-0.0134965
-0.0126693
-0.0111405
-0.00924596
-0.00710698
-0.0049314
-0.00282049
-0.000892977
0.000626623
0.00174735
0.00242171
0.00269494
0.00270548
0.00254507
0.0022994
0.00202596
0.00175826
0.00151501
0.00130406
0.00112409
0.000968967
0.000831939
0.000704051
0.000580169
0.000457323
0.000340054
0.000233475
0.000143564
7.23109e-05
1.72274e-05
-0.00545798
-0.00575998
-0.00594783
-0.00589316
-0.00607762
-0.00685879
-0.00859199
-0.0110533
-0.0130292
-0.014076
-0.0140365
-0.0131012
-0.0114692
-0.00951806
-0.00736024
-0.00517527
-0.00306874
-0.00110912
0.000441033
0.00158465
0.00227903
0.00257719
0.00260792
0.00246667
0.00223738
0.00197645
0.00171811
0.00148223
0.00127738
0.00110195
0.000949784
0.000814009
0.000686595
0.000563119
0.00044187
0.000328369
0.000226956
0.000141464
7.3016e-05
1.87827e-05
-0.00564991
-0.00595091
-0.00589232
-0.00617315
-0.00639733
-0.00768278
-0.00990141
-0.0123225
-0.0141915
-0.0151343
-0.0149596
-0.0138061
-0.0120101
-0.0099481
-0.00778918
-0.0055987
-0.00348928
-0.00151026
8.54584e-05
0.00125807
0.00198488
0.0023164
0.00237961
0.00227276
0.00207708
0.00184645
0.00161386
0.00139864
0.00120962
0.00104519
0.000901474
0.000772893
0.000653343
0.000539697
0.000431077
0.000329455
0.000236139
0.000153716
8.43048e-05
2.54257e-05
-0.00525841
-0.00553765
-0.00544988
-0.00560286
-0.00641759
-0.00855556
-0.0110987
-0.0134603
-0.0153027
-0.0161916
-0.0159012
-0.0145473
-0.0125902
-0.0104356
-0.00825208
-0.00607289
-0.0039677
-0.00198298
-0.000363472
0.000836881
0.00159116
0.00195708
0.00206072
0.00200139
0.00185397
0.00166798
0.00147367
0.00128884
0.00112334
0.000977021
0.000846171
0.000726972
0.000615851
0.000509904
0.000409246
0.000315181
0.000229257
0.000152418
8.53027e-05
2.67946e-05
-0.00551065
-0.00594215
-0.00533698
-0.00563711
-0.00627517
-0.00891412
-0.0117114
-0.014202
-0.0161459
-0.01709
-0.0167753
-0.0152575
-0.0131349
-0.0108752
-0.008686
-0.00653503
-0.0044396
-0.00246884
-0.000846799
0.000356189
0.00112541
0.00152557
0.00167509
0.00167106
0.00158093
0.00144868
0.00130123
0.00115444
0.00101736
0.000891661
0.000775835
0.000668288
0.000567572
0.000472282
0.000381945
0.000297673
0.000219396
0.00014855
8.49224e-05
2.78117e-05
-0.00441723
-0.00507091
-0.00430109
-0.00473665
-0.00592071
-0.00884254
-0.011866
-0.0144543
-0.0164476
-0.0174218
-0.017136
-0.0155817
-0.0134138
-0.0111518
-0.00897776
-0.006866
-0.00480174
-0.00287934
-0.00128454
-0.000100801
0.000659742
0.00107976
0.00127314
0.00132808
0.00129951
0.00122343
0.0011237
0.00101502
0.000906926
0.000802752
0.000703194
0.000608671
0.000519513
0.000434912
0.00035412
0.000277761
0.00020681
0.000141722
8.17288e-05
2.667e-05
-0.00464478
-0.00568727
-0.00475067
-0.00452756
-0.00548394
-0.0083726
-0.0114395
-0.0140932
-0.0161253
-0.0171312
-0.0169016
-0.0154453
-0.0133673
-0.0111821
-0.00906617
-0.00701237
-0.0050048
-0.00315904
-0.00164066
-0.000510981
0.000235938
0.000680369
0.000912909
0.00101504
0.00103778
0.00100994
0.000951689
0.000876739
0.000795111
0.000711232
0.000627351
0.000545639
0.000467373
0.00039305
0.000321741
0.000254699
0.000191274
0.000131964
7.64312e-05
2.45857e-05
-0.00515686
-0.00421543
-0.00340688
-0.00374229
-0.00519977
-0.00781331
-0.0106343
-0.0131308
-0.0150355
-0.0160243
-0.0159486
-0.0147722
-0.0129439
-0.0109342
-0.00893129
-0.00696219
-0.00505257
-0.00332527
-0.00191189
-0.000865316
-0.000159334
0.000299741
0.000581856
0.000736004
0.000803765
0.000813495
0.000786356
0.0007381
0.000679736
0.000615512
0.000547059
0.000478385
0.000411889
0.000349254
0.000288142
0.000229879
0.000173773
0.000120082
6.9677e-05
2.24331e-05
-0.00391368
-0.00433937
-0.0045495
-0.00450844
-0.00504213
-0.00736917
-0.00990084
-0.0121032
-0.0137797
-0.0146799
-0.0147108
-0.0138005
-0.0122314
-0.0104003
-0.00853989
-0.00670234
-0.00493938
-0.0033896
-0.00212614
-0.00116604
-0.000490358
-3.24343e-05
0.000272521
0.00046318
0.000570711
0.000618318
0.000621507
0.0005958
0.000556419
0.000510071
0.000458031
0.000403996
0.00035045
0.000299285
0.000249065
0.000200607
0.000153306
0.000106643
6.19091e-05
2.0186e-05
-0.00338037
-0.00389727
-0.00404179
-0.00439248
-0.00537152
-0.00721113
-0.00927622
-0.0111212
-0.0125412
-0.0133084
-0.0133107
-0.0125731
-0.0112272
-0.00958061
-0.00787904
-0.00623033
-0.00469645
-0.00336591
-0.00227535
-0.00142158
-0.000780003
-0.000315598
6.76602e-06
0.000217693
0.000344533
0.000412732
0.000441173
0.000442118
0.000426277
0.00039948
0.000364168
0.000325227
0.00028533
0.000245769
0.000206301
0.000166905
0.000127986
8.95455e-05
5.18073e-05
1.68403e-05
-0.00313511
-0.00364636
-0.00409524
-0.00471701
-0.0055415
-0.0068695
-0.00846412
-0.00990266
-0.0109912
-0.0115707
-0.0115932
-0.0110161
-0.00991162
-0.00854395
-0.00712309
-0.0057408
-0.0044536
-0.00332204
-0.00237467
-0.00161193
-0.00102379
-0.000583874
-0.000259238
-2.94871e-05
0.000123144
0.000216499
0.000266643
0.000287693
0.000292152
0.00028532
0.000268972
0.000246751
0.000221086
0.000193305
0.000164001
0.000134297
0.000104843
7.29985e-05
4.0969e-05
1.34584e-05
-0.00289167
-0.0034235
-0.00394736
-0.0045695
-0.00531582
-0.00632449
-0.00752841
-0.00864204
-0.00948394
-0.00995168
-0.00999125
-0.00955234
-0.00870117
-0.00762237
-0.00646721
-0.00532744
-0.00425767
-0.00329091
-0.00245403
-0.00176188
-0.00121498
-0.000797603
-0.000485984
-0.000256046
-8.87705e-05
2.78789e-05
0.000104006
0.000149147
0.000173139
0.000182971
0.000181731
0.00017353
0.000159286
0.000141965
0.00012199
0.000100444
7.84061e-05
5.36185e-05
2.61676e-05
1.00327e-05
-0.00272317
-0.00323545
-0.0037756
-0.00437433
-0.00504748
-0.00584965
-0.00677711
-0.00763398
-0.00828509
-0.00864208
-0.00866602
-0.00834093
-0.00768973
-0.00683855
-0.00591237
-0.00497671
-0.00407445
-0.00324225
-0.00250867
-0.00188995
-0.00138838
-0.000989847
-0.000678026
-0.000439033
-0.00026109
-0.000132517
-4.16902e-05
2.02902e-05
6.08936e-05
8.56812e-05
9.88104e-05
0.000103842
0.000101215
9.37131e-05
8.23445e-05
6.9807e-05
5.69102e-05
4.26498e-05
3.14325e-05
9.18223e-06
-0.00258399
-0.00306671
-0.00358737
-0.00414479
-0.00474677
-0.00541611
-0.00613986
-0.00680171
-0.0073019
-0.0075764
-0.00760107
-0.00735979
-0.00686351
-0.00619698
-0.0054478
-0.00467009
-0.00390555
-0.00319154
-0.00255252
-0.00199663
-0.00152941
-0.00115167
-0.000852466
-0.000616887
-0.00043182
-0.000290151
-0.000185354
-0.000109615
-5.48521e-05
-1.60268e-05
9.72964e-06
2.60808e-05
3.48055e-05
3.85083e-05
3.8521e-05
3.51638e-05
2.97798e-05
2.32699e-05
1.5373e-05
5.34623e-06
-0.00246975
-0.00291403
-0.00339802
-0.00391223
-0.0044538
-0.00502279
-0.00560079
-0.0061224
-0.00651829
-0.00673823
-0.00675939
-0.00657425
-0.00618931
-0.00565559
-0.00504342
-0.00439879
-0.00375427
-0.0031397
-0.00257714
-0.00207988
-0.00165282
-0.00129684
-0.00100701
-0.000773283
-0.000585233
-0.000435906
-0.000319729
-0.000230867
-0.000162319
-0.000109435
-6.97618e-05
-4.06188e-05
-2.06159e-05
-6.84732e-06
1.8485e-06
6.38916e-06
8.84567e-06
8.59411e-06
7.06024e-06
2.8336e-06
-0.00236329
-0.00277301
-0.00321618
-0.0036873
-0.00417415
-0.00466458
-0.00513935
-0.00555807
-0.00587281
-0.00604917
-0.00607177
-0.00592865
-0.00562591
-0.00519978
-0.0046991
-0.00416177
-0.00361589
-0.00308781
-0.00259564
-0.0021493
-0.00175693
-0.00142346
-0.00114647
-0.000917031
-0.000725986
-0.000568468
-0.000441453
-0.000340267
-0.000259786
-0.000196045
-0.00014581
-0.00010643
-7.6071e-05
-5.29124e-05
-3.56128e-05
-2.28431e-05
-1.36309e-05
-7.15458e-06
-2.42475e-06
-8.71506e-07
-0.00226379
-0.00264326
-0.00304805
-0.00347711
-0.00391535
-0.00434398
-0.00474272
-0.00508502
-0.00533993
-0.00548697
-0.00550888
-0.00539875
-0.00516033
-0.00481634
-0.00440234
-0.00395308
-0.00349267
-0.00303713
-0.00260371
-0.00220659
-0.00185197
-0.00154078
-0.00127304
-0.00104643
-0.000854537
-0.000692588
-0.000558361
-0.000448434
-0.000357648
-0.000282513
-0.000221019
-0.000171217
-0.000130794
-9.86298e-05
-7.28984e-05
-5.27903e-05
-3.65477e-05
-2.293e-05
-1.30961e-05
-4.08663e-06
-0.0021705
-0.00252354
-0.00289489
-0.00328563
-0.00367939
-0.00405663
-0.00439914
-0.00468625
-0.0048988
-0.00502036
-0.00504203
-0.00495707
-0.00476648
-0.00448778
-0.00414851
-0.00377257
-0.00338005
-0.00298903
-0.00261258
-0.00225896
-0.0019341
-0.00164262
-0.00138705
-0.00116614
-0.000974887
-0.000808751
-0.000666018
-0.000545544
-0.000444019
-0.000358284
-0.000286094
-0.00022614
-0.000176455
-0.000135432
-0.000101663
-7.41094e-05
-5.17379e-05
-3.40364e-05
-1.92654e-05
-6.28532e-06
-0.00208367
-0.00241409
-0.00275662
-0.00311214
-0.0034668
-0.00380221
-0.00410014
-0.00434584
-0.00452656
-0.00463099
-0.00465252
-0.00458613
-0.00443376
-0.00420807
-0.00392836
-0.00361422
-0.00328303
-0.00294875
-0.00261984
-0.00230447
-0.00200999
-0.00174
-0.00149644
-0.00127979
-0.00108763
-0.000917243
-0.000767981
-0.00063925
-0.000528658
-0.000433815
-0.000352669
-0.00028386
-0.00022563
-0.000176985
-0.00013616
-0.000101835
-7.28591e-05
-4.79e-05
-2.70108e-05
-8.91187e-06
-0.00200392
-0.00231484
-0.00263224
-0.0029571
-0.00327829
-0.00357833
-0.00384099
-0.00405478
-0.00421144
-0.0043033
-0.00432438
-0.00427202
-0.00414992
-0.00396682
-0.00373725
-0.00347752
-0.00319974
-0.00291366
-0.00262849
-0.00235056
-0.00208425
-0.00183288
-0.00159947
-0.00138651
-0.00119385
-0.0010198
-0.000863859
-0.000726258
-0.000605592
-0.000500321
-0.000408778
-0.000329928
-0.000262437
-0.00020556
-0.000157848
-0.000118098
-8.45997e-05
-5.61635e-05
-3.17219e-05
-1.03059e-05
-0.00193112
-0.00222517
-0.00252114
-0.00282
-0.00311205
-0.00338188
-0.00361598
-0.00380487
-0.00394239
-0.00402369
-0.00404511
-0.00400468
-0.00390599
-0.00375814
-0.00357183
-0.00335806
-0.00312727
-0.0028873
-0.00264313
-0.00239886
-0.00215831
-0.00192451
-0.0017009
-0.00149118
-0.00129695
-0.00111815
-0.000955027
-0.000808454
-0.000678384
-0.000564102
-0.000464091
-0.000377299
-0.000302239
-0.000238096
-0.000183598
-0.000137541
-9.87248e-05
-6.57326e-05
-3.73366e-05
-1.23252e-05
-0.00186557
-0.00214553
-0.0024235
-0.00270004
-0.00296722
-0.00321212
-0.00342278
-0.00359102
-0.00371278
-0.00378531
-0.00380555
-0.00377386
-0.00369496
-0.00357612
-0.00342619
-0.00325414
-0.00306702
-0.00286948
-0.00266406
-0.00245255
-0.00223668
-0.00201881
-0.00180296
-0.00159443
-0.00139697
-0.00121241
-0.00104182
-0.000886094
-0.000745792
-0.000621062
-0.000510837
-0.000414608
-0.000331423
-0.000260609
-0.000200434
-0.000149504
-0.000106573
-7.03605e-05
-3.94968e-05
-1.27008e-05
-0.00180703
-0.00207562
-0.00233843
-0.00259602
-0.00284183
-0.0030652
-0.00325629
-0.00340767
-0.00351603
-0.00358
-0.00359861
-0.00357321
-0.00350938
-0.00341513
-0.00329755
-0.00316327
-0.0030172
-0.0028607
-0.00269328
-0.00251423
-0.00232233
-0.0021184
-0.00190791
-0.00169856
-0.00149591
-0.00130346
-0.0011237
-0.000958179
-0.000807577
-0.000672812
-0.000553133
-0.000448151
-0.00035749
-0.000280401
-0.000215084
-0.000159874
-0.000113552
-7.45801e-05
-4.17989e-05
-1.35415e-05
-0.00175614
-0.00201572
-0.00226668
-0.00250882
-0.00273635
-0.0029404
-0.0031135
-0.0032503
-0.00334694
-0.00340263
-0.00341803
-0.00339604
-0.00334371
-0.00327004
-0.00318147
-0.00308316
-0.00297752
-0.00286193
-0.00273182
-0.00258353
-0.00241447
-0.00222382
-0.00201683
-0.00180378
-0.00159293
-0.00138987
-0.00119864
-0.00102211
-0.000861121
-0.00071555
-0.000586235
-0.000473176
-0.000375618
-0.000292659
-0.000222713
-0.000163924
-0.000115007
-7.42453e-05
-4.07264e-05
-1.2543e-05
-0.00171222
-0.0019655
-0.00220792
-0.00243844
-0.00265193
-0.00284086
-0.00299833
-0.00312068
-0.00320587
-0.00325279
-0.00326317
-0.00324164
-0.00319713
-0.00314001
-0.00307714
-0.00301341
-0.00294991
-0.00287672
-0.00278224
-0.00266017
-0.00250613
-0.0023208
-0.00211397
-0.00189768
-0.00167992
-0.00146688
-0.00126349
-0.00107448
-0.000901967
-0.000747
-0.000609442
-0.000489378
-0.000386154
-0.000298749
-0.0002254
-0.000164088
-0.00011368
-7.20099e-05
-3.87657e-05
-1.14034e-05
-0.00167649
-0.00192543
-0.00216116
-0.00238144
-0.00258248
-0.00275888
-0.0029054
-0.00301757
-0.0030924
-0.0031299
-0.00313378
-0.00311015
-0.00306962
-0.00302504
-0.00298479
-0.00295383
-0.00293317
-0.00290712
-0.00284986
-0.00274812
-0.00259767
-0.00240504
-0.00218605
-0.00195692
-0.00172749
-0.00150456
-0.00129332
-0.00109791
-0.000919917
-0.000759607
-0.000617199
-0.000493185
-0.000387056
-0.000297435
-0.00022248
-0.000160132
-0.000109181
-6.75431e-05
-3.51528e-05
-9.37696e-06
-0.00166532
-0.00191288
-0.00214443
-0.00235937
-0.00255467
-0.00272492
-0.00286511
-0.00297115
-0.00304016
-0.00307253
-0.00307228
-0.00304648
-0.00300639
-0.002964
-0.00292949
-0.00290915
-0.00290205
-0.00288978
-0.00284734
-0.00275829
-0.00261757
-0.0024299
-0.00221111
-0.00197918
-0.00174507
-0.00151775
-0.00130271
-0.0011044
-0.0009239
-0.00076182
-0.000618138
-0.00049336
-0.000386353
-0.000296288
-0.000220712
-0.000158323
-0.000107188
-6.58606e-05
-3.39017e-05
-8.37363e-06
)
;

boundaryField
{
    inlet
    {
        type            zeroGradient;
    }
    outlet
    {
        type            fixedValue;
        value           uniform 0;
    }
    lowerWall
    {
        type            zeroGradient;
    }
    upperWall
    {
        type            zeroGradient;
    }
    defaultFaces
    {
        type            empty;
    }
}


// ************************************************************************* //
