/*--------------------------------*- C++ -*----------------------------------*\
| =========                 |                                                 |
| \\      /  F ield         | OpenFOAM: The Open Source CFD Toolbox           |
|  \\    /   O peration     | Version:  2112                                  |
|   \\  /    A nd           | Website:  www.openfoam.com                      |
|    \\/     M anipulation  |                                                 |
\*---------------------------------------------------------------------------*/
FoamFile
{
    version     2.0;
    format      ascii;
    arch        "LSB;label=32;scalar=64";
    class       volScalarField;
    location    "0.36";
    object      nut;
}
// * * * * * * * * * * * * * * * * * * * * * * * * * * * * * * * * * * * * * //

dimensions      [0 2 -1 0 0 0 0];

internalField   nonuniform List<scalar> 
1880
(
3.49514e-11
3.2554e-12
6.30429e-13
3.48954e-14
2.29405e-14
1.34169e-13
7.34948e-15
2.86294e-14
3.79685e-14
6.4651e-14
2.80262e-14
5.54575e-14
5.78289e-14
1.43341e-14
2.00075e-14
1.19449e-14
1.74285e-13
2.12263e-13
2.75459e-13
7.92762e-13
2.18078e-13
3.84137e-12
3.91547e-12
5.06344e-12
8.8847e-12
1.01475e-12
5.88317e-11
4.5054e-11
2.54697e-10
9.69889e-10
4.02988e-09
5.49879e-09
1.99171e-09
1.09917e-10
5.78961e-11
3.74574e-11
1.09507e-12
1.47933e-11
1.09837e-12
4.77817e-12
2.01143e-12
1.69128e-12
5.36611e-12
3.2422e-12
1.62591e-11
1.32685e-11
1.11795e-10
5.32017e-11
3.36641e-10
9.63382e-11
1.24709e-10
4.52444e-10
6.50284e-11
4.87778e-10
5.82129e-10
1.67056e-10
9.29157e-10
1.95565e-09
1.37843e-09
2.66554e-09
2.2806e-09
2.39233e-09
8.37958e-10
7.72411e-10
9.04263e-10
1.00803e-10
2.73211e-09
3.14442e-11
5.56432e-10
2.51798e-09
1.37845e-09
4.60708e-12
4.29247e-09
1.5025e-13
1.04672e-09
2.34814e-09
4.27514e-11
4.44147e-09
9.26551e-10
1.42305e-09
6.06245e-09
2.66543e-09
2.49053e-09
1.0863e-08
1.53951e-09
4.39223e-09
1.9235e-08
3.8447e-09
1.3974e-08
3.51328e-08
2.04335e-10
8.28926e-11
9.30972e-10
1.47666e-09
8.52021e-09
3.02992e-09
8.11679e-09
1.75008e-09
2.18897e-09
9.22249e-12
7.17894e-09
8.04649e-10
2.65295e-08
5.86016e-09
7.40697e-09
4.73647e-09
7.16579e-09
5.28059e-09
5.32241e-09
4.14004e-09
8.43166e-11
5.82078e-09
6.58519e-09
1.30058e-08
1.06949e-08
1.31212e-08
1.96215e-08
2.22274e-08
2.58064e-08
2.44825e-08
8.41218e-10
5.67292e-10
4.25951e-09
5.13821e-10
2.80497e-09
1.68427e-09
3.56279e-09
7.48101e-10
1.37293e-09
3.25662e-10
1.76774e-09
1.59479e-09
2.56157e-08
5.05845e-09
1.12315e-08
3.72252e-09
4.12999e-09
6.46376e-09
2.03949e-08
4.64513e-09
1.83015e-11
6.72073e-09
1.96254e-09
1.12529e-08
6.29417e-09
1.2167e-08
1.42103e-08
1.75066e-08
1.88659e-08
3.07153e-08
2.32717e-10
1.35522e-09
1.85785e-09
2.08105e-09
5.80816e-10
3.34575e-09
7.35069e-10
1.88673e-09
6.56247e-10
2.64484e-09
4.80969e-10
2.35525e-10
1.9899e-09
9.95262e-10
3.1635e-09
1.30479e-09
1.60423e-09
1.76604e-09
1.98829e-09
5.4939e-09
4.02159e-09
6.68534e-09
6.54848e-09
8.7398e-09
9.87632e-09
1.26359e-08
1.50026e-08
1.7482e-08
1.93443e-08
2.07275e-08
6.67255e-10
2.51259e-09
3.96467e-09
1.41485e-09
2.90215e-09
1.74876e-09
2.82744e-09
7.71257e-10
1.24179e-09
5.90916e-10
8.53557e-10
6.88362e-10
6.48487e-10
1.37683e-09
1.26251e-09
1.34558e-09
3.23304e-09
2.06975e-09
3.72854e-09
3.93215e-09
5.66699e-09
5.29459e-09
6.62005e-09
8.06689e-09
9.57849e-09
1.00503e-08
1.35699e-08
1.46456e-08
1.66691e-08
2.13189e-08
3.97975e-10
1.96541e-09
2.68654e-09
1.35219e-09
1.63193e-09
1.84685e-09
1.84582e-09
1.05669e-09
1.78896e-09
1.97635e-10
1.85825e-09
1.77696e-09
2.15505e-09
1.6552e-09
2.6556e-09
3.46938e-09
4.68238e-09
2.93613e-09
4.95022e-09
5.71193e-09
6.98861e-09
6.44273e-09
7.89678e-09
8.8228e-09
1.05196e-08
1.07468e-08
1.37549e-08
1.41976e-08
1.74569e-08
1.76864e-08
4.42924e-10
1.88493e-09
2.43767e-09
1.08833e-09
1.43167e-09
1.43374e-09
1.49758e-09
1.27012e-09
1.86616e-09
1.38944e-09
2.12614e-09
1.73345e-09
2.99633e-09
1.96385e-09
3.49002e-09
4.40935e-09
5.03278e-09
3.29883e-09
5.06054e-09
4.81342e-09
6.55211e-09
6.26376e-09
7.80033e-09
8.66901e-09
1.02572e-08
1.03353e-08
1.27214e-08
1.39042e-08
1.5861e-08
1.75991e-08
3.38288e-10
1.53741e-09
1.88999e-09
1.03085e-09
1.33786e-09
1.48162e-09
1.73142e-09
1.60662e-09
2.14296e-09
1.50867e-09
2.50267e-09
2.96485e-09
3.71729e-09
2.66693e-09
3.81713e-09
4.49595e-09
4.94603e-09
3.80908e-09
5.27152e-09
5.57565e-09
6.90853e-09
6.60439e-09
8.09762e-09
8.80822e-09
1.0314e-08
1.04637e-08
1.25369e-08
1.3331e-08
1.58611e-08
1.6157e-08
3.26827e-10
1.25688e-09
1.39726e-09
1.08397e-09
1.24716e-09
1.61122e-09
1.60307e-09
1.92085e-09
2.39186e-09
1.90145e-09
2.6136e-09
3.44055e-09
3.65207e-09
3.07846e-09
3.6564e-09
4.54155e-09
4.40402e-09
4.05385e-09
5.30029e-09
5.63627e-09
6.67885e-09
6.84058e-09
7.97531e-09
8.78033e-09
9.99264e-09
1.04142e-08
1.20053e-08
1.30317e-08
1.48896e-08
1.568e-08
3.39065e-10
9.74273e-10
1.25875e-09
1.20028e-09
1.45025e-09
1.75779e-09
1.91058e-09
2.15582e-09
2.48317e-09
2.2751e-09
2.93318e-09
3.45375e-09
3.91596e-09
3.08818e-09
3.875e-09
4.28835e-09
4.62002e-09
4.4897e-09
5.52439e-09
5.88088e-09
6.87938e-09
6.85595e-09
8.08293e-09
8.76151e-09
9.95642e-09
1.04266e-08
1.18862e-08
1.26514e-08
1.45533e-08
1.50358e-08
6.01382e-11
7.17654e-10
9.20687e-10
1.26256e-09
1.57351e-09
1.83298e-09
1.8988e-09
2.28863e-09
2.61241e-09
2.30149e-09
2.84262e-09
3.78769e-09
3.46064e-09
3.32654e-09
3.86527e-09
4.44893e-09
4.45144e-09
4.73292e-09
5.70439e-09
6.25624e-09
6.65443e-09
7.01973e-09
7.96071e-09
8.79373e-09
9.77801e-09
1.04227e-08
1.15713e-08
1.24011e-08
1.37672e-08
1.45001e-08
2.70837e-11
4.86705e-10
9.9136e-10
1.44044e-09
1.61223e-09
1.963e-09
2.06349e-09
2.39719e-09
2.64488e-09
2.59459e-09
3.03005e-09
3.57102e-09
3.70771e-09
3.60196e-09
4.11303e-09
4.46314e-09
4.76066e-09
5.11748e-09
5.92149e-09
6.29823e-09
6.89803e-09
7.14066e-09
8.09066e-09
8.84612e-09
9.789e-09
1.04434e-08
1.15368e-08
1.22097e-08
1.34655e-08
1.41765e-08
7.56848e-14
2.55052e-10
4.90258e-10
1.01955e-09
1.72913e-09
1.73945e-09
1.8903e-09
2.34219e-09
2.5343e-09
2.32739e-09
2.7519e-09
3.58202e-09
3.33014e-09
3.56994e-09
4.22557e-09
4.47878e-09
4.57296e-09
5.06273e-09
6.02621e-09
6.53946e-09
6.58737e-09
7.13748e-09
8.02842e-09
8.81845e-09
9.63206e-09
1.03363e-08
1.12529e-08
1.19904e-08
1.28221e-08
1.34975e-08
6.18914e-11
8.19354e-10
1.1427e-09
1.55317e-09
1.57961e-09
1.84559e-09
1.93553e-09
2.28119e-09
2.45697e-09
2.76004e-09
2.87167e-09
3.35788e-09
3.45107e-09
3.7791e-09
4.21037e-09
4.47401e-09
4.73445e-09
5.25145e-09
6.05495e-09
6.42988e-09
6.84126e-09
7.37537e-09
8.05734e-09
8.78505e-09
9.55782e-09
1.03034e-08
1.12634e-08
1.19414e-08
1.27838e-08
1.34778e-08
2.39924e-12
5.07863e-12
2.04185e-10
5.60597e-10
1.5308e-09
1.15012e-09
1.13031e-09
1.57103e-09
1.68628e-09
1.75948e-09
2.27274e-09
3.16611e-09
2.90319e-09
3.44129e-09
4.17271e-09
4.33301e-09
4.48178e-09
5.16173e-09
6.02632e-09
6.40116e-09
6.53686e-09
7.17833e-09
7.9382e-09
8.51893e-09
9.14676e-09
9.83787e-09
1.07047e-08
1.14989e-08
1.20935e-08
1.25966e-08
2.06568e-09
2.58271e-09
1.60561e-09
1.51146e-09
1.96452e-09
2.32837e-09
3.17632e-09
3.44216e-09
3.20325e-09
3.24559e-09
1.70074e-09
1.19588e-09
5.64568e-10
3.93871e-10
1.66238e-10
1.04788e-10
4.02065e-11
1.94528e-12
6.46683e-14
2.11491e-12
6.24382e-12
8.45728e-13
6.09773e-14
8.69876e-13
2.95558e-12
1.28957e-11
3.70382e-11
1.29127e-10
2.50307e-10
5.98216e-10
4.97466e-09
5.58544e-09
1.0174e-09
1.20479e-10
4.57026e-11
4.25487e-12
3.12967e-13
1.20846e-13
1.97188e-13
6.00242e-14
2.03798e-12
1.40257e-12
4.43512e-13
8.38345e-13
1.66321e-12
1.79197e-12
3.66955e-12
5.3928e-12
4.414e-12
2.26598e-12
4.35104e-12
1.04334e-11
1.13189e-11
9.5623e-12
8.28435e-12
7.13123e-12
8.24597e-12
9.99058e-12
1.10687e-11
1.03418e-11
3.47186e-11
4.62714e-12
2.62109e-13
1.71888e-14
5.38092e-14
3.17438e-14
2.83042e-15
1.73331e-16
1.35688e-17
1.70023e-15
2.74132e-15
5.12836e-16
2.44264e-16
5.23994e-15
1.46646e-14
6.39089e-15
1.18143e-15
2.32565e-15
1.20875e-14
5.46124e-14
9.70321e-14
5.44135e-14
9.4329e-15
3.86085e-15
1.90063e-14
1.19128e-13
3.19158e-13
3.99542e-13
2.63589e-13
8.87564e-14
1.54623e-09
3.92118e-10
8.22406e-10
6.99927e-11
3.68943e-11
1.83678e-10
2.59836e-11
9.52025e-11
3.14364e-10
1.19942e-09
1.14253e-08
8.58163e-09
1.28807e-08
2.0613e-08
4.61326e-09
3.15325e-08
1.54643e-10
1.47614e-08
4.36318e-09
5.48991e-08
2.14622e-08
1.12687e-08
3.35927e-08
6.42706e-08
1.6873e-08
8.03652e-08
5.71345e-08
3.10917e-08
9.89996e-09
6.22341e-08
5.66502e-08
3.32818e-08
2.32756e-08
4.5107e-08
3.53869e-08
1.89494e-08
3.98287e-08
5.32735e-08
2.77821e-11
4.73206e-08
3.46157e-08
3.29751e-08
3.52084e-08
3.83962e-08
3.84846e-08
2.15689e-08
3.47683e-08
4.82671e-08
3.28829e-08
3.49669e-08
3.70788e-08
2.73579e-08
2.59892e-08
3.18523e-08
3.65861e-08
3.09643e-08
3.50794e-08
4.73251e-08
3.33125e-08
2.69141e-08
2.74267e-08
2.60451e-08
2.76486e-08
2.79268e-08
3.07885e-08
2.98951e-08
3.02704e-08
3.96236e-08
3.63968e-08
2.57768e-08
2.95257e-08
2.36366e-08
2.4935e-08
2.62708e-08
2.97747e-08
2.98164e-08
2.80771e-08
3.48237e-08
3.2869e-08
2.31878e-08
2.41249e-08
2.17544e-08
2.39318e-08
2.44951e-08
2.62962e-08
2.76863e-08
2.63199e-08
2.98438e-08
3.01386e-08
2.32382e-08
2.34121e-08
2.02948e-08
2.23464e-08
2.33189e-08
2.4274e-08
2.52918e-08
2.56834e-08
2.72131e-08
2.56717e-08
2.16657e-08
2.03067e-08
1.89496e-08
2.09109e-08
2.18386e-08
2.25596e-08
2.36972e-08
2.35262e-08
2.42902e-08
2.41915e-08
2.07919e-08
1.89779e-08
1.78878e-08
1.97066e-08
2.05313e-08
2.09544e-08
2.19526e-08
2.2344e-08
2.23341e-08
2.12223e-08
1.92134e-08
1.6997e-08
1.68206e-08
1.83758e-08
1.93535e-08
1.97616e-08
2.04364e-08
2.0427e-08
2.05053e-08
1.98554e-08
1.7915e-08
1.62363e-08
1.60735e-08
1.74036e-08
1.8116e-08
1.85047e-08
1.90925e-08
1.91386e-08
1.87822e-08
1.8094e-08
1.67069e-08
1.47018e-08
1.50689e-08
1.61815e-08
1.70056e-08
1.73365e-08
1.77508e-08
1.76237e-08
1.73881e-08
1.67958e-08
1.54962e-08
1.45763e-08
1.45417e-08
1.53634e-08
1.58648e-08
1.62127e-08
1.65307e-08
1.64851e-08
1.6175e-08
1.56801e-08
1.46279e-08
1.31678e-08
1.3384e-08
1.4119e-08
1.45585e-08
1.49667e-08
1.51146e-08
1.52675e-08
1.47894e-08
1.45865e-08
1.31476e-08
9.96058e-10
7.35595e-10
1.63376e-09
1.73332e-09
2.92923e-09
2.88451e-09
3.83023e-09
3.19839e-09
3.49268e-09
2.39037e-09
8.9066e-12
4.8158e-12
5.39849e-13
2.16019e-13
8.57375e-13
5.39326e-12
1.07318e-11
1.75008e-11
2.06902e-11
1.89667e-11
3.57482e-14
8.9238e-17
3.33578e-15
1.30043e-14
2.91127e-14
5.47352e-14
5.78009e-14
8.5873e-14
6.62563e-14
4.15096e-14
7.46286e-08
1.49426e-08
2.81325e-10
5.82456e-08
3.87106e-08
1.75546e-08
3.75414e-09
6.7812e-10
3.01442e-10
1.38942e-10
1.37849e-10
2.04616e-10
2.9357e-10
1.18982e-09
3.2949e-09
2.0835e-08
7.87516e-08
1.20474e-07
2.5679e-08
3.11536e-09
4.54887e-10
8.91696e-11
2.43013e-11
8.57869e-12
3.44555e-12
1.43478e-12
4.33923e-13
3.77079e-14
4.24703e-16
4.8721e-14
1.63428e-13
2.44574e-13
2.17845e-13
1.45682e-13
7.31331e-14
3.09349e-14
1.06381e-14
2.48818e-15
8.8602e-16
1.49068e-15
7.18586e-08
6.3829e-07
2.83528e-10
3.99739e-08
1.23611e-07
1.56766e-07
4.89746e-08
2.19332e-09
7.15987e-07
2.94828e-07
2.03042e-09
5.23772e-10
8.12392e-09
3.387e-08
5.06228e-08
8.82745e-08
1.05141e-07
1.07274e-07
9.11809e-08
6.92318e-08
4.87305e-08
3.18092e-08
1.92491e-08
1.09581e-08
5.8473e-09
2.72598e-09
1.00652e-09
2.72597e-10
4.94872e-11
3.91541e-12
1.61177e-13
1.41256e-12
3.66625e-12
3.93044e-12
3.08199e-12
1.72248e-12
9.33836e-13
4.03177e-13
1.8698e-13
5.60033e-14
3.42836e-08
4.57285e-08
8.80672e-08
8.13243e-08
6.65355e-08
2.24946e-07
3.99697e-07
6.81431e-07
8.24519e-07
3.47219e-07
4.68481e-08
1.37497e-09
3.0647e-11
2.42852e-10
3.44963e-09
2.04631e-08
5.53669e-08
8.65573e-08
9.27552e-08
7.69418e-08
5.93925e-08
4.81844e-08
3.97978e-08
3.24071e-08
2.81789e-08
2.66268e-08
2.4469e-08
1.96928e-08
8.89848e-09
9.51265e-10
2.26221e-12
5.2277e-11
1.39254e-10
1.17808e-10
6.50494e-11
2.37705e-11
7.37218e-12
1.81363e-12
4.20016e-13
7.68548e-14
6.16013e-08
2.09884e-08
1.07175e-07
1.94111e-07
6.4308e-11
3.86152e-07
5.48121e-07
8.68786e-07
9.55989e-07
4.85421e-07
9.51155e-08
5.07228e-09
2.41241e-10
2.91413e-11
2.77627e-11
2.65052e-09
2.03179e-08
5.19992e-08
8.33553e-08
8.13352e-08
6.04623e-08
4.57748e-08
3.98501e-08
3.25237e-08
2.4102e-08
1.78804e-08
8.82405e-09
1.23858e-09
2.51926e-10
3.78392e-10
1.70283e-09
4.70552e-09
1.22889e-09
4.8528e-09
2.947e-09
1.21412e-09
3.21887e-10
6.92569e-11
5.30771e-12
2.42015e-13
4.17373e-08
2.86231e-08
1.26108e-07
1.33909e-07
1.55046e-08
9.95435e-07
1.24712e-06
1.35404e-06
1.39703e-06
8.88647e-07
2.47717e-07
2.44736e-08
1.08045e-09
1.03086e-10
2.30164e-11
8.81606e-10
1.9405e-08
4.13234e-08
6.23165e-08
7.37568e-08
5.73803e-08
3.93331e-08
2.90134e-08
1.78623e-08
8.94937e-09
5.9582e-09
1.33599e-09
5.36752e-08
7.85335e-09
6.82939e-10
2.19884e-11
5.07299e-12
1.81929e-10
8.73626e-10
2.15825e-09
2.15605e-09
1.65567e-08
1.09508e-08
7.59032e-10
2.8391e-11
1.82037e-06
3.80826e-08
1.40896e-07
1.12692e-07
5.55698e-09
4.40558e-07
6.84838e-07
9.98348e-07
1.18996e-06
9.66633e-07
3.92266e-07
7.85218e-08
1.65117e-08
5.25014e-09
4.1036e-10
2.2959e-10
2.65329e-08
6.98591e-08
6.65543e-08
5.9963e-08
3.64805e-08
2.2445e-08
2.09208e-08
1.31771e-08
1.26093e-09
9.60331e-13
1.02231e-12
2.91215e-09
2.04983e-10
8.60813e-09
2.46864e-12
6.26736e-11
2.4675e-10
4.37992e-10
5.79162e-10
7.05427e-10
7.01943e-10
7.1137e-10
5.88829e-10
2.35757e-10
4.77898e-08
1.38399e-07
2.12694e-07
2.45096e-07
1.81847e-08
3.35631e-07
1.43019e-06
1.9281e-06
1.89726e-06
1.41995e-06
6.97202e-07
1.82384e-07
5.41859e-08
4.40258e-08
1.10461e-08
1.00191e-10
2.76964e-08
7.94368e-08
6.88556e-08
5.84973e-08
4.28849e-08
2.206e-08
1.72537e-08
1.77091e-08
1.29409e-08
2.51591e-09
1.08877e-09
7.91311e-09
3.80783e-09
1.26851e-11
1.62454e-11
2.74207e-09
9.49347e-09
6.40395e-09
3.64805e-09
2.15863e-09
1.2075e-09
6.6915e-10
3.53916e-10
1.1849e-10
1.48005e-08
5.83788e-08
2.89606e-09
1.1776e-07
1.0382e-07
7.60125e-09
1.46018e-07
1.28703e-06
1.78031e-06
1.64149e-06
1.03112e-06
3.9355e-07
9.9085e-08
4.04152e-08
1.16613e-08
2.8469e-09
6.26378e-08
7.38555e-08
3.37801e-08
3.55127e-08
4.20671e-08
2.89477e-08
2.96382e-08
2.66648e-08
2.19855e-08
2.10501e-08
1.99728e-08
1.91485e-08
1.42161e-08
1.45174e-09
6.25201e-11
4.65324e-10
1.1031e-10
1.51427e-11
1.30844e-09
6.46378e-09
7.7515e-09
3.82958e-09
1.00492e-09
4.89315e-11
4.93672e-07
1.38268e-08
4.52752e-09
9.54032e-11
4.41438e-09
5.74419e-08
3.83502e-07
1.0805e-06
1.47474e-06
1.47614e-06
1.06797e-06
4.81975e-07
1.89994e-07
4.39879e-08
1.93425e-09
7.07813e-08
8.38237e-08
4.99289e-08
2.85934e-08
1.94365e-08
3.13468e-08
3.21762e-08
2.45444e-08
2.08427e-08
2.04247e-08
2.04591e-08
1.8739e-08
1.46485e-08
1.01466e-08
8.20794e-09
6.82555e-09
3.11609e-09
1.57215e-10
1.02978e-11
1.24689e-11
2.24713e-11
3.64596e-10
1.17653e-09
3.93084e-09
2.46753e-09
2.51876e-08
3.69512e-07
2.6676e-08
1.14564e-08
2.33053e-09
2.12967e-07
8.99727e-07
1.30866e-06
1.36086e-06
1.26729e-06
1.12372e-06
6.47983e-07
1.59337e-08
3.7386e-08
8.43442e-08
7.06035e-08
7.46816e-08
6.78609e-08
5.06541e-08
3.64557e-08
2.86694e-08
3.04865e-08
2.21812e-08
2.23187e-08
1.90431e-08
1.63928e-08
1.7614e-08
1.77017e-08
7.82213e-09
3.95887e-10
9.00389e-11
7.53274e-10
7.62234e-10
8.92314e-10
1.81548e-09
7.07607e-09
2.92112e-09
2.24635e-09
2.43411e-09
2.0193e-09
5.11157e-08
2.11694e-08
4.08109e-08
2.29925e-08
5.48259e-09
6.65692e-08
8.20402e-07
9.27479e-07
6.84511e-07
1.69359e-07
3.01315e-10
2.67283e-08
7.30878e-08
5.27634e-08
7.00805e-08
6.83928e-08
5.04535e-08
3.92961e-08
3.04768e-08
3.63152e-08
3.45457e-08
3.05372e-08
4.91911e-09
2.36218e-08
5.5332e-11
9.67647e-09
8.07307e-09
1.82248e-09
6.10845e-13
5.44316e-08
9.57752e-09
1.20966e-08
6.1842e-09
3.28882e-10
4.57845e-10
1.12869e-10
1.59925e-10
1.15678e-10
4.69975e-10
2.24209e-10
3.10939e-08
2.94812e-08
2.74538e-08
5.30857e-08
6.5019e-08
5.32877e-08
2.24871e-08
1.10681e-08
3.6653e-08
5.13955e-08
5.80525e-08
6.59853e-08
7.30069e-08
6.18326e-08
4.58694e-08
4.73434e-08
4.34032e-08
3.7225e-08
3.7176e-08
3.15359e-08
1.42346e-08
2.25782e-08
2.72222e-08
2.04923e-08
1.62963e-08
1.32576e-08
4.3405e-09
9.99671e-09
1.20333e-08
1.41154e-07
1.03989e-07
3.85203e-09
8.25311e-10
5.72522e-09
2.75234e-09
1.81063e-10
6.68733e-09
3.74061e-10
7.91121e-10
2.90636e-09
2.05548e-08
3.27852e-08
2.87612e-08
3.57226e-08
5.09964e-08
5.64006e-08
5.68199e-08
5.97659e-08
5.50781e-08
5.47431e-08
5.65224e-08
5.49826e-08
5.88523e-08
5.56719e-08
4.34722e-08
3.83599e-08
4.71937e-08
3.99835e-08
2.5602e-08
3.01698e-08
2.88254e-08
2.43044e-08
2.21109e-08
1.24498e-08
1.00304e-08
1.48133e-08
1.47708e-08
1.46789e-08
1.44545e-08
1.1404e-08
8.71785e-09
9.29296e-09
5.6694e-09
6.45244e-11
5.85699e-10
1.41851e-10
7.20707e-11
2.35069e-10
1.31194e-09
2.09751e-09
2.42747e-08
3.5327e-08
2.94019e-08
3.15569e-08
4.16998e-08
4.42921e-08
4.30233e-08
5.07679e-08
4.75932e-08
4.61341e-08
4.93287e-08
4.52674e-08
4.80639e-08
4.48441e-08
4.19085e-08
3.3884e-08
3.26216e-08
3.50636e-08
3.10655e-08
2.57806e-08
2.52809e-08
2.10077e-08
2.00727e-08
1.31154e-08
1.25272e-08
1.45736e-08
8.52171e-09
2.58427e-10
3.8409e-09
9.78645e-09
1.00536e-10
1.47303e-08
1.88237e-08
1.54704e-10
1.91293e-09
8.08161e-09
3.02029e-08
3.24793e-08
1.12423e-08
5.77043e-12
2.27483e-08
3.35311e-08
3.32992e-08
3.11402e-08
3.36427e-08
3.388e-08
3.73113e-08
4.31248e-08
4.5784e-08
4.28322e-08
4.51134e-08
3.79289e-08
3.62876e-08
3.82852e-08
3.97148e-08
3.76742e-08
2.75085e-08
2.46803e-08
3.10709e-08
2.96465e-08
1.90354e-08
1.94435e-08
1.93301e-08
1.62077e-08
1.84794e-09
4.26731e-09
9.74367e-09
3.96854e-09
8.30018e-09
3.61528e-09
1.30932e-11
2.22668e-09
5.32051e-09
3.40626e-09
2.78434e-09
4.54615e-09
4.61697e-08
5.61762e-08
3.10351e-08
2.65295e-09
2.40958e-08
3.0452e-08
3.07677e-08
2.88456e-08
2.9109e-08
2.94375e-08
3.13196e-08
3.48708e-08
3.86769e-08
3.92069e-08
3.86168e-08
3.5959e-08
2.96792e-08
3.11969e-08
3.1076e-08
2.91428e-08
2.90573e-08
2.60163e-08
1.97441e-08
2.34034e-08
1.88256e-08
1.75503e-08
1.61453e-08
1.90304e-08
1.50187e-08
1.2767e-08
1.20799e-08
9.61763e-09
9.40306e-09
1.00257e-08
5.2948e-10
1.30353e-09
5.19799e-09
5.02391e-10
1.30978e-09
1.92025e-11
6.4754e-10
1.98838e-09
3.82089e-09
3.06874e-09
2.31297e-08
2.625e-08
2.73653e-08
2.56989e-08
2.52266e-08
2.55084e-08
2.74809e-08
2.89757e-08
3.09061e-08
3.11211e-08
3.25922e-08
3.08638e-08
2.95707e-08
2.66437e-08
2.6912e-08
2.51024e-08
2.59285e-08
2.74722e-08
2.27077e-08
1.85545e-08
2.13628e-08
2.24341e-08
1.7943e-08
1.41014e-08
1.39472e-08
1.18272e-08
1.13309e-08
3.03545e-09
1.13633e-09
6.47891e-09
2.95228e-09
1.10996e-09
2.86495e-09
2.39065e-09
7.42439e-11
6.53197e-09
1.33769e-08
9.64762e-09
4.60185e-09
4.12087e-09
2.06737e-08
2.3012e-08
2.42159e-08
2.32661e-08
2.23295e-08
2.24063e-08
2.35795e-08
2.49592e-08
2.59083e-08
2.74115e-08
2.47547e-08
2.57744e-08
2.66499e-08
2.35691e-08
2.24189e-08
2.48726e-08
2.21086e-08
1.98724e-08
2.21489e-08
2.16806e-08
1.75145e-08
1.67758e-08
1.57765e-08
1.42101e-08
1.26342e-08
1.04458e-08
1.19403e-08
9.36126e-09
5.30139e-09
5.09066e-09
4.77072e-09
3.11872e-09
4.16769e-09
5.1229e-09
4.1911e-09
2.95494e-09
1.87219e-09
1.59426e-09
1.98914e-09
1.68724e-09
1.9724e-08
2.0786e-08
2.06603e-08
2.05215e-08
2.00807e-08
1.94936e-08
2.02747e-08
2.17945e-08
2.16907e-08
2.20789e-08
2.31151e-08
2.11031e-08
2.08154e-08
2.2133e-08
2.10986e-08
1.93589e-08
2.09389e-08
2.05296e-08
1.85311e-08
1.93961e-08
1.86132e-08
1.68775e-08
1.57733e-08
1.58543e-08
1.48257e-08
1.16446e-08
9.94444e-09
9.70398e-09
9.62471e-09
8.65912e-09
6.51605e-09
4.15437e-09
2.53299e-09
1.71312e-09
2.22447e-09
3.07168e-09
3.917e-09
3.53874e-09
3.42976e-09
2.02578e-09
1.76646e-08
1.82864e-08
1.84927e-08
1.78773e-08
1.76202e-08
1.76981e-08
1.73369e-08
1.7964e-08
1.90987e-08
1.86402e-08
1.87908e-08
1.93015e-08
1.81981e-08
1.75142e-08
1.90373e-08
1.81511e-08
1.7227e-08
1.87978e-08
1.86212e-08
1.69359e-08
1.67984e-08
1.72684e-08
1.58076e-08
1.33747e-08
1.23824e-08
1.22983e-08
1.16214e-08
9.7147e-09
7.27328e-09
5.34868e-09
4.736e-09
4.62777e-09
4.66052e-09
4.68411e-09
4.4819e-09
3.91434e-09
3.06757e-09
2.15848e-09
1.58948e-09
8.7608e-10
1.64823e-08
1.66412e-08
1.62181e-08
1.58925e-08
1.54984e-08
1.51006e-08
1.54447e-08
1.54716e-08
1.54065e-08
1.63364e-08
1.6154e-08
1.56851e-08
1.66326e-08
1.61182e-08
1.51933e-08
1.65731e-08
1.70307e-08
1.6062e-08
1.65821e-08
1.75183e-08
1.67509e-08
1.53699e-08
1.49542e-08
1.46296e-08
1.33645e-08
1.14039e-08
9.93734e-09
9.16959e-09
8.47365e-09
7.42007e-09
6.11592e-09
4.73998e-09
3.77443e-09
3.16144e-09
3.10961e-09
3.00238e-09
3.12884e-09
2.66249e-09
2.6119e-09
1.83269e-09
1.49596e-08
1.48808e-08
1.44813e-08
1.39471e-08
1.35599e-08
1.3274e-08
1.29453e-08
1.31846e-08
1.35289e-08
1.33744e-08
1.38542e-08
1.41666e-08
1.36076e-08
1.38827e-08
1.43653e-08
1.38948e-08
1.42075e-08
1.51545e-08
1.50802e-08
1.4453e-08
1.44115e-08
1.40779e-08
1.28049e-08
1.1181e-08
1.00701e-08
9.21433e-09
8.25756e-09
6.82228e-09
5.33443e-09
4.03062e-09
3.38408e-09
3.16452e-09
3.27859e-09
3.33776e-09
3.25471e-09
2.88258e-09
2.40563e-09
1.74423e-09
1.34829e-09
7.18138e-10
1.40353e-08
1.372e-08
1.30712e-08
1.24998e-08
1.20461e-08
1.16683e-08
1.15482e-08
1.15444e-08
1.17679e-08
1.22572e-08
1.2437e-08
1.25036e-08
1.25861e-08
1.19152e-08
1.10753e-08
1.04657e-08
9.23117e-09
7.50034e-09
6.28941e-09
5.16081e-09
3.71791e-09
2.38982e-09
1.67466e-09
1.27654e-09
9.73335e-10
5.90666e-10
3.56779e-10
2.38751e-10
2.44816e-10
2.99054e-10
4.15742e-10
4.47993e-10
4.8723e-10
4.15752e-10
4.13522e-10
3.27503e-10
3.37931e-10
2.74219e-10
3.02536e-10
2.68648e-10
1.26125e-08
1.22895e-08
1.16964e-08
1.10474e-08
1.04933e-08
1.01675e-08
9.97773e-09
9.95927e-09
1.0013e-08
9.92518e-09
9.40624e-09
8.20987e-09
6.33174e-09
4.01736e-09
1.8302e-09
4.78219e-10
4.097e-11
1.90785e-13
5.96743e-11
2.49297e-10
3.88416e-10
4.27994e-10
4.04309e-10
3.60352e-10
2.81359e-10
1.69267e-10
6.29049e-11
1.74069e-11
4.18431e-12
8.80658e-13
6.99179e-14
6.20202e-13
5.35653e-12
1.63931e-11
2.94123e-11
3.57268e-11
3.37472e-11
2.37855e-11
1.64322e-11
6.34526e-12
2.18124e-09
2.01329e-09
1.88706e-09
1.85759e-09
1.87893e-09
1.94186e-09
2.01798e-09
2.03896e-09
1.98968e-09
1.79953e-09
1.42404e-09
9.80723e-10
5.25173e-10
1.75892e-10
2.41747e-11
3.61453e-13
2.16808e-11
1.33563e-10
2.71229e-10
3.14286e-10
2.93943e-10
2.62308e-10
2.01169e-10
1.21609e-10
6.11953e-11
3.04113e-11
1.37725e-11
5.30445e-12
1.0411e-12
7.85202e-14
1.85524e-13
9.48537e-13
2.14891e-12
2.2351e-12
2.41546e-12
1.66302e-12
1.63419e-12
1.09542e-12
1.10466e-12
6.83396e-13
1.84404e-11
1.69885e-11
1.89403e-11
2.45164e-11
3.15531e-11
3.93766e-11
4.84271e-11
5.57865e-11
6.16426e-11
6.34351e-11
5.39324e-11
3.80598e-11
2.20942e-11
7.97092e-12
7.84815e-13
3.12302e-13
4.44208e-12
1.70463e-11
3.48439e-11
4.49536e-11
4.07635e-11
3.07156e-11
2.07176e-11
1.14492e-11
4.59989e-12
1.34892e-12
2.07029e-13
4.56128e-15
9.4465e-15
7.28775e-14
2.19305e-13
3.59121e-13
5.25444e-13
5.53698e-13
5.45558e-13
4.17962e-13
3.17796e-13
1.82489e-13
1.0882e-13
4.3751e-14
3.27157e-14
1.54846e-14
2.97145e-14
6.77552e-14
1.28518e-13
2.07454e-13
3.13047e-13
4.4568e-13
5.78662e-13
6.81533e-13
6.80028e-13
5.5317e-13
3.26643e-13
7.56324e-14
1.5263e-14
2.75484e-13
1.25519e-12
2.46823e-12
2.7404e-12
1.76155e-12
6.32263e-13
1.33781e-13
9.65757e-15
2.80314e-15
3.08401e-14
6.82849e-14
9.41964e-14
9.62327e-14
8.59186e-14
6.33215e-14
4.15255e-14
2.3611e-14
1.19103e-14
4.93619e-15
2.05499e-15
6.62689e-16
4.57402e-16
9.05936e-17
5.65495e-16
1.10156e-15
)
;

boundaryField
{
    inlet
    {
        type            calculated;
        value           nonuniform List<scalar> 
20
(
1.7452e-34
3.15493e-32
2.18599e-32
1.43573e-32
1.07763e-32
8.34169e-33
7.56583e-33
5.54224e-33
4.47904e-33
2.34333e-33
1.14349e-33
1.78076e-33
1.11936e-33
5.78601e-34
2.19987e-34
5.60773e-34
1.82896e-34
6.57606e-33
6.11661e-33
1.46923e-34
)
;
    }
    outlet
    {
        type            calculated;
        value           nonuniform List<scalar> 
27
(
1.24833e-32
1.0847e-32
3.62505e-33
5.39485e-35
1.2558e-32
7.74421e-36
1.38472e-32
6.72174e-33
2.32666e-33
3.19723e-33
1.20352e-36
1.00729e-32
3.65498e-33
9.75221e-33
5.10401e-33
3.89462e-33
5.46084e-36
5.51186e-38
4.50335e-36
5.68864e-37
8.51006e-37
2.10127e-36
2.02862e-37
2.26153e-35
1.06788e-34
1.13046e-33
4.81783e-33
)
;
    }
    lowerWall
    {
        type            fixedValue;
        value           uniform 0;
    }
    upperWall
    {
        type            fixedValue;
        value           uniform 0;
    }
    defaultFaces
    {
        type            empty;
    }
}


// ************************************************************************* //
