/*--------------------------------*- C++ -*----------------------------------*\
| =========                 |                                                 |
| \\      /  F ield         | OpenFOAM: The Open Source CFD Toolbox           |
|  \\    /   O peration     | Version:  2112                                  |
|   \\  /    A nd           | Website:  www.openfoam.com                      |
|    \\/     M anipulation  |                                                 |
\*---------------------------------------------------------------------------*/
FoamFile
{
    version     2.0;
    format      ascii;
    arch        "LSB;label=32;scalar=64";
    class       volScalarField;
    location    "0.36";
    object      p;
}
// * * * * * * * * * * * * * * * * * * * * * * * * * * * * * * * * * * * * * //

dimensions      [0 2 -2 0 0 0 0];

internalField   nonuniform List<scalar> 
1880
(
0.00319644
0.00306506
0.00297244
0.00292318
0.00289454
0.0028739
0.00285454
0.00283741
0.00282019
0.00280866
0.00279898
0.00279219
0.00278987
0.00278949
0.00279392
0.00280155
0.00281789
0.00283415
0.00286377
0.00289308
0.00293428
0.00299252
0.00304432
0.00312325
0.00320367
0.00328428
0.00339814
0.00350181
0.00361533
0.00368034
0.00301615
0.00298781
0.00294642
0.00290874
0.0028808
0.00285807
0.0028415
0.00282596
0.00281118
0.00279989
0.00278998
0.00278218
0.00277813
0.00277869
0.00277763
0.00278955
0.0027967
0.00281963
0.00283558
0.00286952
0.00290294
0.00295687
0.0030034
0.00307213
0.00314127
0.00321616
0.00332013
0.00342473
0.00353109
0.00367727
0.00298334
0.0029646
0.00293495
0.00290246
0.00287495
0.00285128
0.00283382
0.00281858
0.00280351
0.00279262
0.00278208
0.00277194
0.0027666
0.00276466
0.0027639
0.00276841
0.00277491
0.00279095
0.00280397
0.00282996
0.0028553
0.00289745
0.00293107
0.00298293
0.00304062
0.00308966
0.00316945
0.00323171
0.00329001
0.00334538
0.0029259
0.00291492
0.00289965
0.00287772
0.0028567
0.00283556
0.00281886
0.00280426
0.0027886
0.00277892
0.00276647
0.0027575
0.00274804
0.00274607
0.00274098
0.00274126
0.0027449
0.00275316
0.00276346
0.00277485
0.0027977
0.00282085
0.00284798
0.00288137
0.00291321
0.00294466
0.00299051
0.00301097
0.00303591
0.00305179
0.0028978
0.00288903
0.00287886
0.00286246
0.00284483
0.00282523
0.00280847
0.00279351
0.00277712
0.00276612
0.00275314
0.00274209
0.00273048
0.00272582
0.00271763
0.00271339
0.00271179
0.00271508
0.00271811
0.00272227
0.00273393
0.00274558
0.00275988
0.00277332
0.00278682
0.00279923
0.00280862
0.00280589
0.00279093
0.00276178
0.00287047
0.00286233
0.00285453
0.00284206
0.00282719
0.00280999
0.00279395
0.00277922
0.00276211
0.00274995
0.00273655
0.00272268
0.00271032
0.00270125
0.00269197
0.00268107
0.00267587
0.00267295
0.00266974
0.00266468
0.0026661
0.00266684
0.00266699
0.00266442
0.00266087
0.00264978
0.00263667
0.00260579
0.00255939
0.00249956
0.00284979
0.00284224
0.00283591
0.00282585
0.00281274
0.00279715
0.00278139
0.00276657
0.00274837
0.00273499
0.00272008
0.00270417
0.00268933
0.00267725
0.00266479
0.00264899
0.00263889
0.00263
0.00261964
0.00260678
0.00259761
0.00258815
0.00257537
0.0025583
0.00253697
0.00250881
0.00247253
0.00241973
0.00235027
0.0022659
0.00283259
0.00282585
0.00281991
0.00281107
0.00279868
0.00278386
0.0027683
0.0027528
0.00273409
0.00271849
0.002703
0.00268384
0.00266736
0.00265175
0.00263587
0.00261605
0.00260024
0.00258575
0.00256871
0.00254771
0.00252975
0.0025094
0.00248524
0.00245466
0.00241896
0.00237447
0.00232024
0.00224978
0.00216176
0.00205656
0.00281902
0.00281286
0.00280695
0.00279869
0.00278641
0.00277198
0.00275605
0.00273997
0.00272014
0.00270287
0.00268592
0.00266405
0.00264533
0.00262634
0.00260706
0.002583
0.00256177
0.0025422
0.0025181
0.00249001
0.00246325
0.00243328
0.00239888
0.00235649
0.0023075
0.00224975
0.0021804
0.0020949
0.00199214
0.00187258
0.00280872
0.00280316
0.00279703
0.00278871
0.00277619
0.00276133
0.00274503
0.00272765
0.00270689
0.00268754
0.00266907
0.00264473
0.00262319
0.0026015
0.0025781
0.00255034
0.00252403
0.00249897
0.00246907
0.00243355
0.00239914
0.00236079
0.00231671
0.00226405
0.00220392
0.00213447
0.00205303
0.00195545
0.00184191
0.00171105
0.00280184
0.00279674
0.00279011
0.00278136
0.00276806
0.00275243
0.00273523
0.00271645
0.00269436
0.00267306
0.00265281
0.00262603
0.00260169
0.00257725
0.00254997
0.0025186
0.00248725
0.00245741
0.00242194
0.00237957
0.00233832
0.00229233
0.00223971
0.00217839
0.00210833
0.00202935
0.00193846
0.00183123
0.00170894
0.0015703
0.00279852
0.00279363
0.00278637
0.00277672
0.00276241
0.00274547
0.00272716
0.00270668
0.0026831
0.00265997
0.0026376
0.00260876
0.00258129
0.00255437
0.00252337
0.00248816
0.00245264
0.00241798
0.00237755
0.00232913
0.00228126
0.00222892
0.00216875
0.00209964
0.00202158
0.00193462
0.0018362
0.00172156
0.00159272
0.00144864
0.0027991
0.00279409
0.00278578
0.00277468
0.00275867
0.00273994
0.00271996
0.0026976
0.00267243
0.00264756
0.00262317
0.00259228
0.00256192
0.00253252
0.00249805
0.00245921
0.00241989
0.00238089
0.00233597
0.00228207
0.00222835
0.00217056
0.00210378
0.00202816
0.00194349
0.00184992
0.00174559
0.00162546
0.00149144
0.00134335
0.00280431
0.00279906
0.00278963
0.00277683
0.00275892
0.00273808
0.00271622
0.00269175
0.00266473
0.00263806
0.00261125
0.00257829
0.00254509
0.002513
0.00247533
0.00243285
0.00239026
0.00234724
0.00229785
0.00223932
0.00218032
0.00211781
0.00204558
0.00196416
0.00187417
0.00177536
0.00166632
0.00154212
0.00140428
0.00125395
0.00281404
0.0028075
0.00279571
0.00277979
0.00275878
0.0027351
0.00271087
0.0026844
0.00265573
0.00262754
0.0025987
0.00256397
0.00252848
0.002494
0.00245359
0.00240814
0.00236287
0.0023163
0.00226279
0.00220031
0.00213691
0.00207037
0.00199354
0.00190723
0.00181301
0.00171008
0.00159723
0.00147015
0.00132972
0.00117737
0.00283294
0.00282513
0.00281032
0.00279031
0.00276534
0.00273832
0.00271154
0.00268306
0.00265278
0.00262295
0.00259183
0.00255501
0.00251704
0.00247967
0.00243632
0.00238797
0.00233994
0.00228984
0.00223221
0.00216647
0.00209947
0.00202914
0.00194835
0.00185784
0.00176013
0.00165396
0.001538
0.00140885
0.00126703
0.00111462
0.00285349
0.00284147
0.00282088
0.00279514
0.00276608
0.00273631
0.00270777
0.00267802
0.00264648
0.00261502
0.00258164
0.00254297
0.00250309
0.0024633
0.00241773
0.00236755
0.00231774
0.00226477
0.00220377
0.0021357
0.00206597
0.00199218
0.00190823
0.00181479
0.00171457
0.001606
0.00148754
0.00135681
0.00121385
0.00105987
0.00290671
0.00288444
0.00284986
0.00281266
0.00277676
0.00274331
0.00271284
0.00268154
0.00264825
0.00261454
0.00257856
0.00253805
0.00249657
0.00245455
0.00240727
0.0023557
0.00230345
0.00224711
0.00218301
0.00211313
0.00204058
0.00196281
0.00187568
0.00177975
0.00167717
0.00156653
0.00144626
0.00131504
0.00117307
0.00102098
0.00293553
0.00290111
0.00285592
0.00281358
0.00277592
0.00274238
0.00271136
0.00267893
0.00264433
0.00260885
0.0025708
0.00252957
0.00248726
0.00244269
0.00239327
0.0023408
0.00228691
0.0022276
0.00216067
0.00208927
0.00201439
0.00193408
0.00184652
0.0017506
0.00164619
0.00153269
0.00140932
0.00127643
0.00113423
0.000982192
0.00311512
0.0029755
0.0028781
0.00282418
0.00278819
0.00275466
0.00272058
0.00268465
0.00264759
0.00261024
0.00257097
0.00252969
0.00248687
0.00244101
0.00239105
0.00233792
0.0022818
0.00222083
0.00215407
0.00208265
0.0020059
0.0019231
0.00183359
0.00173658
0.00163137
0.0015177
0.00139475
0.00126308
0.00112265
0.000973377
0.00383578
0.00370523
0.00340928
0.00304584
0.00230902
0.00178332
0.00091089
0.000108505
-0.00112649
-0.00255772
0.00375127
0.00347528
0.00304123
0.00259889
0.00184039
0.00127927
0.000455731
-0.000474156
-0.0015134
-0.00288811
0.00337873
0.00308969
0.00265469
0.00231683
0.0016131
0.00110161
0.000319274
-0.00048135
-0.00148529
-0.00248717
0.00304363
0.00275693
0.00236241
0.00193143
0.00133179
0.0007345
7.78916e-05
-0.000767997
-0.00162251
-0.00250469
0.00270867
0.00244332
0.002021
0.00164518
0.00110145
0.000564251
-4.74554e-05
-0.000782449
-0.00156898
-0.00233377
0.00242221
0.00214572
0.00179016
0.00137926
0.000914046
0.000356988
-0.000203196
-0.00088482
-0.00159826
-0.00227028
0.00216126
0.00190844
0.00154845
0.00116366
0.000732155
0.000226602
-0.0002973
-0.000900113
-0.00154589
-0.00214478
0.00193829
0.00168388
0.00135995
0.000981569
0.00058513
0.000110661
-0.00038519
-0.000935792
-0.00151645
-0.002056
0.00173826
0.00149968
0.00118695
0.000830084
0.000455154
2.27169e-05
-0.000441955
-0.000944774
-0.00145904
-0.00194755
0.00156776
0.00133639
0.00104325
0.000704757
0.000350851
-4.85588e-05
-0.000482972
-0.000947264
-0.00140995
-0.00185498
0.00141814
0.00119713
0.000918236
0.000599453
0.000263867
-0.000106825
-0.000510166
-0.000936122
-0.00135475
-0.00176076
0.00129167
0.00107909
0.00081507
0.00051433
0.000196488
-0.000150084
-0.000524947
-0.000917901
-0.00130238
-0.00167632
0.00118187
0.000976277
0.000725684
0.000441931
0.000140426
-0.000185052
-0.000533662
-0.000895919
-0.00125068
-0.00159673
0.00109153
0.000893073
0.000655163
0.000386564
0.000100268
-0.000206872
-0.000532759
-0.000869301
-0.00120047
-0.00152411
0.00101221
0.00081825
0.000591669
0.00033745
6.55372e-05
-0.000224744
-0.000530118
-0.000844044
-0.00115449
-0.00145879
0.000951222
0.000763307
0.000546841
0.000304815
4.53755e-05
-0.000230663
-0.000519489
-0.000815755
-0.0011102
-0.00139955
0.000894476
0.000709675
0.00050241
0.000272792
2.6332e-05
-0.000235591
-0.000509281
-0.000790288
-0.00107101
-0.00134786
0.000858254
0.00067827
0.000478222
0.000257661
2.07612e-05
-0.000230883
-0.000493668
-0.000764059
-0.00103528
-0.0013032
0.000819883
0.000644093
0.000452532
0.00024325
1.78902e-05
-0.000223001
-0.000475574
-0.000736951
-0.00100132
-0.00126317
0.000813959
0.000639465
0.000449434
0.000243049
2.12412e-05
-0.000215751
-0.000464361
-0.000722428
-0.000984104
-0.00124622
-0.00559081
-0.00588458
-0.00595416
-0.00599558
-0.00650463
-0.0083196
-0.0108174
-0.0128229
-0.0137367
-0.013436
-0.0120753
-0.00990898
-0.00743007
-0.0047901
-0.00233064
-0.000224749
0.00140315
0.00236369
0.00279705
0.00284464
0.00268683
0.00243827
0.00216509
0.00189931
0.00165441
0.0014349
0.00123595
0.0010539
0.000884689
0.000729649
0.000590505
0.000469826
0.000368366
0.000285279
0.000217746
0.000162773
0.000117117
7.81271e-05
4.42316e-05
1.35537e-05
-0.00573929
-0.00603977
-0.00607718
-0.00598467
-0.00703925
-0.00924141
-0.0117478
-0.0136608
-0.014485
-0.014077
-0.012597
-0.0103281
-0.00779927
-0.00515863
-0.00266068
-0.000520076
0.00117036
0.00217999
0.00266413
0.00273926
0.00259943
0.00236701
0.00210834
0.00185436
0.00161827
0.00140426
0.00121012
0.00103145
0.000865518
0.000713691
0.000578047
0.000461004
0.000363008
0.00028257
0.000217047
0.000163233
0.00011836
7.95972e-05
4.54976e-05
1.43774e-05
-0.0056431
-0.00592814
-0.00615628
-0.00663751
-0.00806748
-0.0105137
-0.012977
-0.0148459
-0.0156226
-0.0150888
-0.0134303
-0.0110128
-0.00840319
-0.00578386
-0.00328671
-0.00108902
0.000687123
0.00180323
0.00236103
0.0024931
0.00239171
0.00219335
0.00196607
0.00173789
0.00152181
0.00132472
0.00114612
0.000981687
0.000830612
0.000692158
0.000569025
0.000461276
0.00036894
0.000291232
0.000226407
0.000171941
0.000125617
8.51298e-05
4.90732e-05
1.59567e-05
-0.00522818
-0.0053289
-0.00529354
-0.00633875
-0.00879341
-0.0117479
-0.0142498
-0.0160949
-0.0168142
-0.0161303
-0.0142542
-0.0116667
-0.00898664
-0.00640615
-0.00394019
-0.00173464
9.64441e-05
0.00130036
0.00193223
0.00214164
0.00210271
0.00195659
0.00177625
0.00158797
0.00140268
0.00122859
0.00106858
0.00092065
0.000783749
0.000658528
0.000546815
0.000448396
0.000362968
0.000289337
0.000226558
0.000173031
0.000126989
8.6498e-05
4.99482e-05
1.63237e-05
-0.00538605
-0.00573886
-0.0054723
-0.00662188
-0.00919405
-0.0123227
-0.0148982
-0.0168412
-0.0175434
-0.016822
-0.0148428
-0.0121517
-0.00944363
-0.00688971
-0.00448683
-0.00230288
-0.000486045
0.000762131
0.00143822
0.00171663
0.00175408
0.00167429
0.00154853
0.00140612
0.00125872
0.00111444
0.000977502
0.000847925
0.000726918
0.00061658
0.000517445
0.000429537
0.000352291
0.000284582
0.00022568
0.000174201
0.000128843
8.82584e-05
5.13717e-05
1.69536e-05
-0.0047121
-0.00558886
-0.00468892
-0.00615425
-0.00906285
-0.0123732
-0.0151538
-0.017122
-0.0177871
-0.0169951
-0.0149819
-0.0123323
-0.00968279
-0.00721181
-0.00489893
-0.00274904
-0.000972557
0.000269315
0.000956077
0.00127966
0.00138884
0.00138153
0.0013165
0.00122113
0.00111057
0.000996302
0.000884432
0.000776055
0.000671503
0.000573967
0.000485669
0.000407383
0.000337238
0.000274837
0.000219021
0.000169506
0.000125735
8.62931e-05
5.00924e-05
1.64893e-05
-0.00476144
-0.00567688
-0.0046077
-0.00590979
-0.00856124
-0.0117924
-0.0144709
-0.0163337
-0.0169814
-0.0163135
-0.0144971
-0.0120952
-0.00963798
-0.00731096
-0.0051254
-0.0030704
-0.00137185
-0.000168713
0.000526254
0.000886292
0.00105132
0.00110252
0.0010893
0.00103848
0.000964737
0.000879406
0.000790276
0.000700465
0.000611148
0.000525184
0.000446268
0.000376392
0.000314745
0.000259827
0.000210094
0.000164632
0.000122843
8.47359e-05
4.95207e-05
1.64506e-05
-0.00481982
-0.0038318
-0.00415719
-0.00540746
-0.00799638
-0.0107892
-0.0132009
-0.0149234
-0.015596
-0.0151447
-0.013641
-0.0115562
-0.0093197
-0.00716447
-0.00511872
-0.00321387
-0.00166472
-0.000581214
9.5224e-05
0.00050132
0.000732536
0.000844751
0.000875108
0.000858544
0.000816626
0.000759902
0.000693605
0.000621257
0.000546171
0.000472894
0.000404992
0.000343574
0.00028764
0.000236542
0.000190709
0.000149729
0.0001126
7.82581e-05
4.58947e-05
1.52662e-05
-0.00394558
-0.00472125
-0.00508409
-0.00562977
-0.00759256
-0.0101163
-0.0122397
-0.0136781
-0.014215
-0.013793
-0.0125472
-0.0107456
-0.00872311
-0.00673352
-0.00487667
-0.00319608
-0.00183148
-0.000879559
-0.000268312
0.000142588
0.000410709
0.000572725
0.00065567
0.000677921
0.000663863
0.000631675
0.000588002
0.0005343
0.000473758
0.000412846
0.000355936
0.000303752
0.000256632
0.000214506
0.00017624
0.000140208
0.00010604
7.38366e-05
4.34466e-05
1.45952e-05
-0.00348006
-0.00415704
-0.00464861
-0.00554249
-0.00721915
-0.00928271
-0.0110005
-0.0121025
-0.0124753
-0.0121417
-0.0111148
-0.00956978
-0.00783902
-0.00613734
-0.00455252
-0.00314604
-0.0019846
-0.00111746
-0.000523671
-0.000116607
0.00015703
0.000328591
0.000428254
0.000479886
0.000498136
0.000492474
0.000470405
0.00043649
0.000393714
0.000347395
0.00030242
0.000260576
0.000220539
0.000182037
0.000146635
0.00011552
8.79327e-05
6.23099e-05
3.72006e-05
1.22697e-05
-0.00323722
-0.00392553
-0.00466682
-0.00550419
-0.00673434
-0.00822876
-0.00950927
-0.0103439
-0.0106382
-0.0103683
-0.00956136
-0.0083469
-0.00695779
-0.00556755
-0.00426801
-0.00310693
-0.00211553
-0.00133885
-0.000775019
-0.000368099
-7.96589e-05
0.000113173
0.000231852
0.000299904
0.000337445
0.000353177
0.000350819
0.000334799
0.000308779
0.000278521
0.000249307
0.000219154
0.000187394
0.000157119
0.000130107
0.000104861
7.99171e-05
5.54824e-05
3.23557e-05
1.06239e-05
-0.00301901
-0.00367049
-0.00436581
-0.00513871
-0.00607962
-0.00717315
-0.00815182
-0.0088081
-0.00904237
-0.00886032
-0.00826212
-0.00731662
-0.00621662
-0.00510828
-0.00404312
-0.00306381
-0.00220342
-0.00150179
-0.000978372
-0.000593386
-0.000307124
-9.78382e-05
4.60657e-05
0.000138464
0.000196442
0.000229558
0.00024269
0.000240336
0.000227285
0.000209311
0.000190065
0.000169483
0.000147078
0.000123282
9.98187e-05
7.84817e-05
5.98778e-05
4.27031e-05
2.54939e-05
8.59416e-06
-0.00284749
-0.00342404
-0.00405795
-0.00476568
-0.00553485
-0.00635774
-0.00709954
-0.00760505
-0.00779043
-0.00765555
-0.00721361
-0.00649068
-0.00561003
-0.00470456
-0.00381964
-0.00298489
-0.0022475
-0.00163172
-0.00114719
-0.000773391
-0.000485779
-0.000269284
-0.0001127
-3.10907e-06
7.01321e-05
0.000115741
0.000142628
0.000157024
0.000160596
0.000154341
0.000143104
0.000130406
0.000115022
9.78972e-05
8.25189e-05
6.96855e-05
5.6888e-05
4.19379e-05
2.51547e-05
8.51211e-06
-0.00267468
-0.00319462
-0.00376364
-0.00439435
-0.00504522
-0.00568674
-0.00625078
-0.00663604
-0.00678123
-0.00668583
-0.00635224
-0.00579768
-0.00509802
-0.00434978
-0.00361477
-0.00292008
-0.00228425
-0.0017291
-0.00127709
-0.000923858
-0.000647764
-0.000432697
-0.000271848
-0.000155381
-7.01134e-05
-8.0911e-06
3.4116e-05
6.13782e-05
7.79726e-05
8.57087e-05
8.61626e-05
8.13355e-05
7.42163e-05
6.59976e-05
5.59277e-05
4.45002e-05
3.30542e-05
2.28278e-05
1.3643e-05
4.49241e-06
-0.00251999
-0.00298817
-0.00349212
-0.00404895
-0.00461219
-0.00513562
-0.00557601
-0.00587676
-0.00599503
-0.00591883
-0.00565834
-0.0052255
-0.00466754
-0.00405502
-0.00343618
-0.002842
-0.00229254
-0.0018023
-0.00138922
-0.00105813
-0.000794119
-0.000580815
-0.000410943
-0.000281456
-0.000184218
-0.000110384
-5.56566e-05
-1.69808e-05
9.57654e-06
2.67087e-05
3.68786e-05
4.29417e-05
4.57969e-05
4.33404e-05
3.66557e-05
2.94087e-05
2.25391e-05
1.61395e-05
9.61111e-06
3.10125e-06
-0.0023738
-0.00279746
-0.00324873
-0.00373857
-0.00422513
-0.00466092
-0.00501396
-0.00525205
-0.00534938
-0.00529445
-0.00508852
-0.00474561
-0.00429837
-0.00379499
-0.00327423
-0.00276484
-0.00228875
-0.00185752
-0.00148191
-0.00116984
-0.000914395
-0.000704647
-0.000533472
-0.000396746
-0.000289896
-0.000207327
-0.000143478
-9.40234e-05
-5.64886e-05
-3.02411e-05
-1.31758e-05
-1.62712e-06
6.21375e-06
1.08064e-05
1.26983e-05
1.39427e-05
1.47219e-05
1.32943e-05
9.59393e-06
3.66367e-06
-0.00224117
-0.00262625
-0.00303165
-0.00346181
-0.00388469
-0.00425623
-0.00455063
-0.00474865
-0.00482927
-0.00478788
-0.00462462
-0.00434848
-0.0039848
-0.00356894
-0.00313176
-0.00269602
-0.00228093
-0.00189912
-0.00155918
-0.0012692
-0.00102607
-0.0008212
-0.000650463
-0.000510444
-0.00039616
-0.000303668
-0.000230408
-0.000172705
-0.000126009
-8.82319e-05
-5.96483e-05
-3.73977e-05
-2.1797e-05
-1.19767e-05
-5.64191e-06
-2.39082e-06
-1.01861e-06
-6.25273e-07
-6.9339e-07
-6.51206e-07
-0.00211938
-0.0024722
-0.00283781
-0.00321801
-0.00358761
-0.00390872
-0.00415882
-0.00432574
-0.00439797
-0.00436943
-0.00423894
-0.00401479
-0.00371727
-0.0033723
-0.00300362
-0.00263077
-0.00226975
-0.0019315
-0.00162346
-0.00135295
-0.00112121
-0.00092196
-0.000750641
-0.000606003
-0.000485733
-0.000385559
-0.000302003
-0.000233161
-0.000178217
-0.000135719
-0.000101936
-7.55781e-05
-5.39822e-05
-3.67223e-05
-2.31652e-05
-1.29813e-05
-5.83186e-06
-1.38122e-06
7.8947e-07
7.00848e-07
-0.00200953
-0.00233391
-0.00266587
-0.00300488
-0.00332981
-0.0036112
-0.00383006
-0.0039757
-0.00404014
-0.00402063
-0.00391802
-0.00373613
-0.00349013
-0.00320279
-0.0028921
-0.00257254
-0.00225783
-0.00195824
-0.00168041
-0.00143022
-0.00120977
-0.00101656
-0.000847729
-0.000700993
-0.000574727
-0.000467736
-0.000378337
-0.000303661
-0.000240278
-0.000186358
-0.000142636
-0.00010773
-8.00764e-05
-5.86193e-05
-4.23544e-05
-3.03255e-05
-2.11357e-05
-1.40082e-05
-8.16663e-06
-3.00058e-06
-0.00190962
-0.00221096
-0.0025146
-0.00281905
-0.00310786
-0.00335738
-0.00355064
-0.00368049
-0.00374088
-0.00372894
-0.00364664
-0.00349907
-0.00329711
-0.00305728
-0.00279467
-0.00252088
-0.00224718
-0.00198263
-0.00173226
-0.00150063
-0.00129095
-0.00110262
-0.000934319
-0.00078516
-0.000653857
-0.000539125
-0.000439853
-0.000355158
-0.000284139
-0.000225589
-0.000177255
-0.000137176
-0.000103866
-7.62848e-05
-5.40004e-05
-3.69848e-05
-2.38816e-05
-1.40782e-05
-6.88129e-06
-1.99825e-06
-0.00182011
-0.00210212
-0.00238197
-0.00265844
-0.00291746
-0.00314078
-0.00331495
-0.00343209
-0.00348901
-0.00348415
-0.0034186
-0.00329808
-0.00313219
-0.00293219
-0.00271023
-0.00247741
-0.00224132
-0.00200749
-0.00178157
-0.00156788
-0.00136865
-0.00118499
-0.00101749
-0.000865725
-0.000729033
-0.000607949
-0.000503049
-0.000412875
-0.000334697
-0.000267009
-0.000210125
-0.000163459
-0.000125537
-9.49507e-05
-7.00878e-05
-5.14184e-05
-3.57204e-05
-2.33927e-05
-1.31934e-05
-4.49873e-06
-0.00174036
-0.00200686
-0.00226741
-0.00252081
-0.00275576
-0.00295752
-0.00311512
-0.00322264
-0.00327677
-0.00327665
-0.00322519
-0.00312725
-0.00299019
-0.00282456
-0.00263968
-0.00244225
-0.00223837
-0.00203372
-0.00183192
-0.00163525
-0.00144529
-0.00126436
-0.00109579
-0.000941088
-0.000799517
-0.000671126
-0.000556739
-0.000456515
-0.000370236
-0.0002971
-0.000235719
-0.000184182
-0.000141192
-0.00010586
-7.78212e-05
-5.46046e-05
-3.71696e-05
-2.333e-05
-1.24074e-05
-3.84104e-06
-0.00167017
-0.00192438
-0.0021693
-0.00240391
-0.00261932
-0.00280376
-0.00294768
-0.00304615
-0.00309758
-0.00310179
-0.00306076
-0.00298061
-0.00286907
-0.00273329
-0.00257983
-0.00241446
-0.00224205
-0.00206531
-0.00188533
-0.00170348
-0.00152226
-0.00134484
-0.0011746
-0.00101393
-0.000864337
-0.000728063
-0.000607161
-0.000500938
-0.000408002
-0.000327296
-0.00025877
-0.000201751
-0.000154873
-0.000116909
-8.67415e-05
-6.2432e-05
-4.33216e-05
-2.81236e-05
-1.57129e-05
-5.26295e-06
-0.00160956
-0.00185477
-0.00208774
-0.00230691
-0.00250539
-0.00267441
-0.00280667
-0.00289787
-0.00294651
-0.0029525
-0.00291981
-0.00285499
-0.00276393
-0.00265377
-0.0025307
-0.00239653
-0.00225233
-0.00210052
-0.00194161
-0.00177495
-0.00160148
-0.00142529
-0.00125126
-0.00108408
-0.00092669
-0.000781385
-0.000650859
-0.000535528
-0.000434588
-0.000347882
-0.000274489
-0.000213344
-0.000163027
-0.000122146
-8.93555e-05
-6.31604e-05
-4.25838e-05
-2.64484e-05
-1.39163e-05
-4.13792e-06
-0.00155846
-0.00179796
-0.00202304
-0.00223128
-0.00241644
-0.00257184
-0.002693
-0.00277686
-0.0028217
-0.00282825
-0.00280119
-0.00274758
-0.00267404
-0.00258736
-0.00249186
-0.00238683
-0.00227127
-0.00214406
-0.00200264
-0.00184533
-0.00167488
-0.0014976
-0.00131946
-0.00114506
-0.000979711
-0.000825628
-0.000685834
-0.00056262
-0.000455406
-0.000363304
-0.000285293
-0.000220362
-0.000167258
-0.000124423
-9.04663e-05
-6.37218e-05
-4.29876e-05
-2.68603e-05
-1.43589e-05
-4.39175e-06
-0.0015149
-0.0017511
-0.00197069
-0.00217051
-0.00234602
-0.00249237
-0.00260513
-0.00268216
-0.00272247
-0.00272771
-0.00270395
-0.00265892
-0.00259975
-0.00253271
-0.00246144
-0.00238568
-0.0022996
-0.00219615
-0.00206931
-0.00191696
-0.00174418
-0.0015601
-0.00137244
-0.00118881
-0.00101305
-0.000850995
-0.000704849
-0.000575815
-0.000463696
-0.000367915
-0.000287164
-0.000220371
-0.000165994
-0.000122429
-8.79496e-05
-6.08864e-05
-3.99509e-05
-2.37906e-05
-1.18415e-05
-2.90588e-06
-0.00150003
-0.00173517
-0.00195055
-0.00214445
-0.0023143
-0.00245556
-0.00256389
-0.00263713
-0.00267459
-0.00267882
-0.00265618
-0.00261409
-0.00255962
-0.0024998
-0.00243812
-0.00237255
-0.00229626
-0.0022017
-0.00208254
-0.00193545
-0.00176483
-0.00158009
-0.00139108
-0.00120455
-0.00102608
-0.000860962
-0.000711983
-0.000580715
-0.000466976
-0.000369973
-0.000288238
-0.000220658
-0.000165544
-0.000121486
-8.66759e-05
-5.95688e-05
-3.87542e-05
-2.29263e-05
-1.12966e-05
-2.70163e-06
)
;

boundaryField
{
    inlet
    {
        type            zeroGradient;
    }
    outlet
    {
        type            fixedValue;
        value           uniform 0;
    }
    lowerWall
    {
        type            zeroGradient;
    }
    upperWall
    {
        type            zeroGradient;
    }
    defaultFaces
    {
        type            empty;
    }
}


// ************************************************************************* //
