/*--------------------------------*- C++ -*----------------------------------*\
| =========                 |                                                 |
| \\      /  F ield         | OpenFOAM: The Open Source CFD Toolbox           |
|  \\    /   O peration     | Version:  2112                                  |
|   \\  /    A nd           | Website:  www.openfoam.com                      |
|    \\/     M anipulation  |                                                 |
\*---------------------------------------------------------------------------*/
FoamFile
{
    version     2.0;
    format      ascii;
    arch        "LSB;label=32;scalar=64";
    class       surfaceScalarField;
    location    "0.36";
    object      phi;
}
// * * * * * * * * * * * * * * * * * * * * * * * * * * * * * * * * * * * * * //

dimensions      [0 3 -1 0 0 0 0];

oriented        oriented;

internalField   nonuniform List<scalar> 
3653
(
9.92162e-07
7.83799e-09
9.79249e-07
1.29126e-08
9.63573e-07
1.5676e-08
9.48321e-07
1.52524e-08
9.3164e-07
1.66813e-08
9.15151e-07
1.64884e-08
8.97038e-07
1.81137e-08
8.79923e-07
1.71144e-08
8.60688e-07
1.92349e-08
8.43034e-07
1.76539e-08
8.23281e-07
1.97534e-08
8.0515e-07
1.81311e-08
7.8482e-07
2.03297e-08
7.6502e-07
1.98004e-08
7.44187e-07
2.08333e-08
7.22732e-07
2.1455e-08
7.01179e-07
2.15527e-08
6.76066e-07
2.51133e-08
6.54005e-07
2.20604e-08
6.2435e-07
2.96554e-08
5.99675e-07
2.4675e-08
5.67183e-07
3.24914e-08
5.33464e-07
3.37195e-08
4.97303e-07
3.61614e-08
4.54304e-07
4.29986e-08
4.08301e-07
4.60033e-08
3.60662e-07
4.76388e-08
3.0257e-07
5.80916e-08
2.40289e-07
6.22819e-08
7.15851e-08
1.68703e-07
1.00252e-06
5.31496e-09
1.00671e-06
8.7284e-09
1.00849e-06
1.38896e-08
1.01052e-06
1.32304e-08
1.01099e-06
1.62089e-08
1.01194e-06
1.55381e-08
1.01106e-06
1.89947e-08
1.01164e-06
1.65348e-08
1.00854e-06
2.23305e-08
1.00916e-06
1.70381e-08
1.00387e-06
2.50421e-08
1.00303e-06
1.89659e-08
9.97919e-07
2.54446e-08
9.94093e-07
2.36262e-08
9.88694e-07
2.62319e-08
9.82913e-07
2.72361e-08
9.73486e-07
3.09797e-08
9.69442e-07
2.91577e-08
9.54531e-07
3.69714e-08
9.48978e-07
3.5208e-08
9.3114e-07
4.25125e-08
9.19206e-07
4.44257e-08
8.98656e-07
5.42698e-08
8.8455e-07
5.02671e-08
8.52303e-07
7.52453e-08
8.35538e-07
6.27691e-08
7.90175e-07
9.30015e-08
7.56338e-07
9.1928e-08
6.98054e-07
1.20567e-07
1.23816e-07
6.45823e-07
1.0012e-06
4.1136e-09
1.00526e-06
4.67367e-09
1.00716e-06
1.19857e-08
1.01043e-06
9.96366e-09
1.01146e-06
1.51792e-08
1.01401e-06
1.298e-08
1.01525e-06
1.77627e-08
1.01705e-06
1.47309e-08
1.01818e-06
2.11966e-08
1.01941e-06
1.58121e-08
1.02006e-06
2.43938e-08
1.02028e-06
1.87458e-08
1.02077e-06
2.49568e-08
1.01962e-06
2.47689e-08
1.01995e-06
2.59026e-08
1.01834e-06
2.88537e-08
1.01583e-06
3.34847e-08
1.01591e-06
2.90748e-08
1.00798e-06
4.49029e-08
1.00964e-06
3.35488e-08
9.99753e-07
5.24001e-08
9.96758e-07
4.74214e-08
9.8795e-07
6.30772e-08
9.80081e-07
5.81368e-08
9.66604e-07
8.8722e-08
9.56584e-07
7.2789e-08
9.38727e-07
1.10859e-07
9.18247e-07
1.12408e-07
8.97721e-07
1.41093e-07
1.5009e-07
8.71446e-07
1.00085e-06
3.25883e-09
1.00262e-06
2.90711e-09
1.00455e-06
1.00566e-08
1.00669e-06
7.82823e-09
1.00812e-06
1.37459e-08
1.0102e-06
1.09024e-08
1.0114e-06
1.65604e-08
1.01325e-06
1.28816e-08
1.0145e-06
1.99435e-08
1.01598e-06
1.43319e-08
1.01705e-06
2.33293e-08
1.01825e-06
1.75397e-08
1.01811e-06
2.51029e-08
1.02013e-06
2.27491e-08
1.01809e-06
2.79346e-08
1.02078e-06
2.61681e-08
1.01762e-06
3.66487e-08
1.01879e-06
2.78963e-08
1.01632e-06
4.73725e-08
1.01503e-06
3.48482e-08
1.01252e-06
5.49003e-08
1.01014e-06
4.98087e-08
1.0059e-06
6.73191e-08
1.0009e-06
6.31348e-08
9.98101e-07
9.15185e-08
9.87708e-07
8.31816e-08
9.84316e-07
1.14251e-07
9.76163e-07
1.20561e-07
9.65407e-07
1.51848e-07
1.61886e-07
9.53611e-07
1.00065e-06
2.60398e-09
1.00132e-06
2.23796e-09
1.00345e-06
7.93318e-09
1.0045e-06
6.77636e-09
1.00684e-06
1.14014e-08
1.00773e-06
1.00206e-08
1.01e-06
1.42865e-08
1.01084e-06
1.20376e-08
1.01281e-06
1.79731e-08
1.01385e-06
1.32981e-08
1.01524e-06
2.19414e-08
1.01653e-06
1.62437e-08
1.01695e-06
2.46874e-08
1.01847e-06
2.12297e-08
1.01802e-06
2.83814e-08
1.01956e-06
2.46245e-08
1.01849e-06
3.77223e-08
1.01934e-06
2.7044e-08
1.01801e-06
4.87045e-08
1.01751e-06
3.53462e-08
1.0163e-06
5.61148e-08
1.01483e-06
5.12758e-08
1.01299e-06
6.91622e-08
1.01036e-06
6.57631e-08
1.00844e-06
9.34362e-08
1.00475e-06
8.68699e-08
1.00203e-06
1.16976e-07
9.99624e-07
1.22964e-07
9.98963e-07
1.5251e-07
1.63374e-07
9.97475e-07
1.00065e-06
1.9494e-09
1.00097e-06
1.91864e-09
1.00264e-06
6.2658e-09
1.0036e-06
5.81672e-09
1.00551e-06
9.49552e-09
1.00663e-06
8.8995e-09
1.00857e-06
1.2342e-08
1.00954e-06
1.10711e-08
1.01165e-06
1.58571e-08
1.01236e-06
1.25945e-08
1.0144e-06
1.98953e-08
1.01529e-06
1.5354e-08
1.01644e-06
2.35406e-08
1.0178e-06
1.98676e-08
1.01829e-06
2.78915e-08
1.01902e-06
2.38987e-08
1.02031e-06
3.64275e-08
1.01929e-06
2.80649e-08
1.02111e-06
4.68904e-08
1.01953e-06
3.69268e-08
1.0203e-06
5.53392e-08
1.01932e-06
5.22534e-08
1.01968e-06
6.88101e-08
1.01743e-06
6.80098e-08
1.01939e-06
9.14797e-08
1.01634e-06
8.99115e-08
1.01805e-06
1.15268e-07
1.01855e-06
1.22472e-07
1.02087e-06
1.5019e-07
1.60664e-07
1.02358e-06
1.00064e-06
1.30629e-09
1.0006e-06
1.95927e-09
1.00226e-06
4.6072e-09
1.00276e-06
5.32104e-09
1.00484e-06
7.40867e-09
1.00569e-06
8.05417e-09
1.00776e-06
1.02713e-08
1.00885e-06
9.98301e-09
1.01077e-06
1.39304e-08
1.01196e-06
1.14136e-08
1.01379e-06
1.80641e-08
1.01504e-06
1.40992e-08
1.01654e-06
2.20447e-08
1.01788e-06
1.85223e-08
1.01905e-06
2.67238e-08
1.02002e-06
2.29241e-08
1.02166e-06
3.4794e-08
1.02155e-06
2.81747e-08
1.02378e-06
4.46587e-08
1.02305e-06
3.76545e-08
1.02473e-06
5.36573e-08
1.02496e-06
5.20273e-08
1.0259e-06
6.78692e-08
1.02622e-06
6.76951e-08
1.02853e-06
8.91646e-08
1.0287e-06
8.97477e-08
1.03185e-06
1.12109e-07
1.03479e-06
1.19539e-07
1.0402e-06
1.44773e-07
1.54259e-07
1.04661e-06
1.00049e-06
8.12723e-10
1.0006e-06
1.85742e-09
1.00189e-06
3.31107e-09
1.00259e-06
4.62404e-09
1.00433e-06
5.66224e-09
1.00538e-06
7.00477e-09
1.00737e-06
8.28333e-09
1.00848e-06
8.87424e-09
1.01071e-06
1.1698e-08
1.01168e-06
1.04433e-08
1.01408e-06
1.56711e-08
1.01512e-06
1.30566e-08
1.01728e-06
1.98879e-08
1.01847e-06
1.73289e-08
1.02058e-06
2.46145e-08
1.02127e-06
2.2228e-08
1.02409e-06
3.19753e-08
1.02401e-06
2.82584e-08
1.02723e-06
4.1443e-08
1.0272e-06
3.76769e-08
1.02989e-06
5.09692e-08
1.03072e-06
5.11975e-08
1.03365e-06
6.49388e-08
1.03455e-06
6.67974e-08
1.03887e-06
8.48485e-08
1.04061e-06
8.8005e-08
1.04564e-06
1.0708e-07
1.05022e-06
1.1496e-07
1.0581e-06
1.36885e-07
1.47057e-07
1.06531e-06
1.00045e-06
3.66496e-10
1.00056e-06
1.73877e-09
1.00175e-06
2.12578e-09
1.00248e-06
3.88928e-09
1.0041e-06
4.04602e-09
1.00535e-06
5.76008e-09
1.00714e-06
6.48586e-09
1.00865e-06
7.36355e-09
1.01065e-06
9.70168e-09
1.01209e-06
9.00042e-09
1.01444e-06
1.33241e-08
1.01577e-06
1.17292e-08
1.01829e-06
1.73667e-08
1.01961e-06
1.60052e-08
1.02219e-06
2.20344e-08
1.0234e-06
2.10175e-08
1.02643e-06
2.8945e-08
1.02727e-06
2.7421e-08
1.03076e-06
3.79569e-08
1.03179e-06
3.66452e-08
1.03506e-06
4.76992e-08
1.03704e-06
4.92175e-08
1.04071e-06
6.12704e-08
1.04314e-06
6.43655e-08
1.04837e-06
7.96153e-08
1.05192e-06
8.44559e-08
1.05826e-06
1.00741e-07
1.06461e-06
1.08615e-07
1.07373e-06
1.27765e-07
1.37287e-07
1.08349e-06
1.00034e-06
2.61858e-11
1.00062e-06
1.46392e-09
1.00165e-06
1.09237e-09
1.00255e-06
2.99137e-09
1.00408e-06
2.51355e-09
1.00544e-06
4.39944e-09
1.00733e-06
4.59657e-09
1.00888e-06
5.80895e-09
1.01112e-06
7.46669e-09
1.01263e-06
7.49153e-09
1.01523e-06
1.07232e-08
1.01676e-06
1.0202e-08
1.01957e-06
1.45571e-08
1.02116e-06
1.44069e-08
1.0242e-06
1.90025e-08
1.02573e-06
1.94836e-08
1.02922e-06
2.54503e-08
1.03074e-06
2.59057e-08
1.03463e-06
3.40703e-08
1.03653e-06
3.47377e-08
1.04053e-06
4.37053e-08
1.04325e-06
4.64921e-08
1.04801e-06
5.65129e-08
1.05148e-06
6.08968e-08
1.05768e-06
7.34171e-08
1.06266e-06
7.94684e-08
1.07023e-06
9.3172e-08
1.07761e-06
1.01241e-07
1.08815e-06
1.1722e-07
1.26921e-07
1.09852e-06
1.00028e-06
-2.52797e-10
1.00069e-06
1.05707e-09
1.00165e-06
1.32887e-10
1.00274e-06
1.89826e-09
1.00419e-06
1.0622e-09
1.00581e-06
2.78113e-09
1.00764e-06
2.76911e-09
1.00949e-06
3.9514e-09
1.01171e-06
5.24528e-09
1.01354e-06
5.66354e-09
1.01623e-06
8.03703e-09
1.01808e-06
8.34861e-09
1.02108e-06
1.15571e-08
1.0231e-06
1.23839e-08
1.02629e-06
1.58185e-08
1.02852e-06
1.72551e-08
1.03209e-06
2.18811e-08
1.0345e-06
2.34917e-08
1.03859e-06
2.99838e-08
1.04141e-06
3.19149e-08
1.04588e-06
3.9232e-08
1.04956e-06
4.28121e-08
1.05492e-06
5.11571e-08
1.05956e-06
5.62523e-08
1.0664e-06
6.65817e-08
1.07268e-06
7.31845e-08
1.08101e-06
8.4843e-08
1.08958e-06
9.26746e-08
1.10071e-06
1.06093e-07
1.15181e-07
1.11245e-06
1.00023e-06
-4.83153e-10
1.00078e-06
5.08473e-10
1.00174e-06
-8.27103e-10
1.00298e-06
6.52412e-10
1.00451e-06
-4.67255e-10
1.00625e-06
1.04777e-09
1.00824e-06
7.77181e-10
1.01021e-06
1.98425e-09
1.01261e-06
2.84646e-09
1.01465e-06
3.61827e-09
1.01747e-06
5.21402e-09
1.01968e-06
6.14111e-09
1.02282e-06
8.41542e-09
1.02527e-06
9.93442e-09
1.02868e-06
1.24148e-08
1.03141e-06
1.45246e-08
1.03522e-06
1.80724e-08
1.03834e-06
2.03656e-08
1.04272e-06
2.56016e-08
1.04631e-06
2.83284e-08
1.05128e-06
3.42617e-08
1.05572e-06
3.83763e-08
1.06169e-06
4.51828e-08
1.0673e-06
5.0645e-08
1.0747e-06
5.91795e-08
1.08198e-06
6.59088e-08
1.09105e-06
7.57719e-08
1.10037e-06
8.33501e-08
1.1121e-06
9.43599e-08
1.03091e-07
1.12419e-06
1.00022e-06
-7.06327e-10
1.00092e-06
-1.87683e-10
1.00196e-06
-1.86698e-09
1.00343e-06
-8.17836e-10
1.00505e-06
-2.08732e-09
1.00701e-06
-9.11786e-10
1.00908e-06
-1.29201e-09
1.01126e-06
-2.01983e-10
1.01375e-06
3.64257e-10
1.01608e-06
1.28974e-09
1.019e-06
2.28919e-09
1.02157e-06
3.57464e-09
1.02482e-06
5.16602e-09
1.02774e-06
7.00684e-09
1.03124e-06
8.91573e-09
1.03454e-06
1.12255e-08
1.03853e-06
1.40888e-08
1.0423e-06
1.65935e-08
1.04698e-06
2.09167e-08
1.05125e-06
2.40587e-08
1.0566e-06
2.89174e-08
1.06181e-06
3.31642e-08
1.06819e-06
3.88008e-08
1.07465e-06
4.41823e-08
1.0825e-06
5.13339e-08
1.09061e-06
5.77998e-08
1.10016e-06
6.62157e-08
1.1102e-06
7.33159e-08
1.12211e-06
8.24437e-08
9.02778e-08
1.13493e-06
1.00022e-06
-9.25013e-10
1.00108e-06
-1.04444e-09
1.00223e-06
-3.02522e-09
1.00393e-06
-2.51609e-09
1.00571e-06
-3.86448e-09
1.00785e-06
-3.0542e-09
1.01008e-06
-3.51858e-09
1.01247e-06
-2.59635e-09
1.01512e-06
-2.2863e-09
1.01773e-06
-1.31367e-09
1.02079e-06
-7.70116e-10
1.02372e-06
6.45193e-10
1.02712e-06
1.76387e-09
1.03042e-06
3.70156e-09
1.03413e-06
5.20558e-09
1.03785e-06
7.50956e-09
1.04212e-06
9.81835e-09
1.0464e-06
1.23149e-08
1.0514e-06
1.59122e-08
1.05623e-06
1.92307e-08
1.06197e-06
2.31814e-08
1.0678e-06
2.73344e-08
1.07459e-06
3.20061e-08
1.08172e-06
3.7052e-08
1.08997e-06
4.30856e-08
1.09869e-06
4.90823e-08
1.10867e-06
5.6235e-08
1.11919e-06
6.27927e-08
1.13132e-06
7.03173e-08
7.75651e-08
1.14403e-06
1.00033e-06
-1.25936e-09
1.00144e-06
-2.14701e-09
1.0029e-06
-4.48972e-09
1.00487e-06
-4.48303e-09
1.00689e-06
-5.89065e-09
1.00923e-06
-5.38599e-09
1.01163e-06
-5.92488e-09
1.01421e-06
-5.17193e-09
1.017e-06
-5.07619e-09
1.01987e-06
-4.18643e-09
1.02304e-06
-3.94411e-09
1.02625e-06
-2.56492e-09
1.02979e-06
-1.76904e-09
1.03342e-06
6.97163e-11
1.03731e-06
1.31895e-09
1.04141e-06
3.40703e-09
1.04593e-06
5.2924e-09
1.05063e-06
7.61895e-09
1.05592e-06
1.06244e-08
1.06127e-06
1.38829e-08
1.06733e-06
1.71183e-08
1.07372e-06
2.0942e-08
1.08082e-06
2.49069e-08
1.08845e-06
2.94218e-08
1.09703e-06
3.45105e-08
1.10624e-06
3.98644e-08
1.11655e-06
4.59311e-08
1.12745e-06
5.18942e-08
1.13958e-06
5.81797e-08
6.43039e-08
1.15285e-06
1.00039e-06
-1.64983e-09
1.00188e-06
-3.63676e-09
1.00374e-06
-6.35264e-09
1.00608e-06
-6.81957e-09
1.00836e-06
-8.16941e-09
1.0109e-06
-7.93083e-09
1.01348e-06
-8.50494e-09
1.01628e-06
-7.96855e-09
1.01925e-06
-8.04396e-09
1.02241e-06
-7.35335e-09
1.02577e-06
-7.30045e-09
1.02925e-06
-6.04375e-09
1.03295e-06
-5.46762e-09
1.03691e-06
-3.89335e-09
1.04104e-06
-2.81387e-09
1.04549e-06
-1.0358e-09
1.05033e-06
4.51009e-10
1.05535e-06
2.59821e-09
1.06086e-06
5.11761e-09
1.06662e-06
8.12357e-09
1.07304e-06
1.06919e-08
1.07991e-06
1.40701e-08
1.08735e-06
1.74673e-08
1.09538e-06
2.13933e-08
1.10423e-06
2.56667e-08
1.11374e-06
3.03463e-08
1.12426e-06
3.54192e-08
1.13544e-06
4.07144e-08
1.14759e-06
4.60212e-08
5.1539e-08
1.16036e-06
1.00082e-06
-2.47177e-09
1.00292e-06
-5.73317e-09
1.00527e-06
-8.702e-09
1.0079e-06
-9.44857e-09
1.01041e-06
-1.0683e-08
1.01315e-06
-1.06727e-08
1.01595e-06
-1.13027e-08
1.01898e-06
-1.10015e-08
1.02216e-06
-1.12175e-08
1.02561e-06
-1.08095e-08
1.02913e-06
-1.08173e-08
1.03278e-06
-9.69538e-09
1.03663e-06
-9.31954e-09
1.04082e-06
-8.08316e-09
1.04518e-06
-7.17475e-09
1.04987e-06
-5.71786e-09
1.05484e-06
-4.526e-09
1.06011e-06
-2.66968e-09
1.0658e-06
-5.73437e-10
1.07197e-06
1.95094e-09
1.07872e-06
3.9444e-09
1.08592e-06
6.87135e-09
1.09354e-06
9.84311e-09
1.1018e-06
1.31366e-08
1.11085e-06
1.66161e-08
1.12069e-06
2.05063e-08
1.13147e-06
2.46377e-08
1.143e-06
2.91922e-08
1.1554e-06
3.36179e-08
3.8214e-08
1.16872e-06
1.00178e-06
-4.25107e-09
1.0053e-06
-9.25304e-09
1.00847e-06
-1.18689e-08
1.01149e-06
-1.2475e-08
1.0142e-06
-1.33883e-08
1.01724e-06
-1.3713e-08
1.02027e-06
-1.43391e-08
1.02352e-06
-1.42434e-08
1.02672e-06
-1.44172e-08
1.0302e-06
-1.42901e-08
1.03356e-06
-1.41767e-08
1.03707e-06
-1.32088e-08
1.04071e-06
-1.29594e-08
1.04473e-06
-1.20999e-08
1.04893e-06
-1.13783e-08
1.05351e-06
-1.02964e-08
1.05827e-06
-9.28997e-09
1.06327e-06
-7.6711e-09
1.06874e-06
-6.04045e-09
1.07486e-06
-4.16515e-09
1.08155e-06
-2.74385e-09
1.08877e-06
-3.55082e-10
1.09642e-06
2.19581e-09
1.10465e-06
4.90495e-09
1.11368e-06
7.58728e-09
1.12351e-06
1.06797e-08
1.13437e-06
1.37712e-08
1.14607e-06
1.7492e-08
1.15863e-06
2.10651e-08
2.50741e-08
1.17177e-06
1.003e-06
-7.25477e-09
1.0069e-06
-1.31453e-08
1.00967e-06
-1.46475e-08
1.01191e-06
-1.47088e-08
1.01371e-06
-1.51855e-08
1.01552e-06
-1.55309e-08
1.01697e-06
-1.57859e-08
1.01835e-06
-1.56193e-08
1.01949e-06
-1.55627e-08
1.02056e-06
-1.53547e-08
1.02121e-06
-1.4832e-08
1.02209e-06
-1.40921e-08
1.02307e-06
-1.39377e-08
1.02433e-06
-1.33608e-08
1.02556e-06
-1.26013e-08
1.02695e-06
-1.16915e-08
1.0286e-06
-1.09423e-08
1.03087e-06
-9.9327e-09
1.03379e-06
-8.96334e-09
1.03738e-06
-7.75751e-09
1.04116e-06
-6.52149e-09
1.0455e-06
-4.69634e-09
1.05082e-06
-3.12467e-09
1.05737e-06
-1.64086e-09
1.06523e-06
-2.76575e-10
1.0744e-06
1.51098e-09
1.08468e-06
3.49491e-09
1.09612e-06
6.04934e-09
1.1087e-06
8.47946e-09
1.10259e-08
1.12275e-06
9.92745e-07
9.796e-07
9.64953e-07
9.50244e-07
9.35058e-07
9.19527e-07
9.03741e-07
8.88122e-07
8.72559e-07
8.57205e-07
8.42373e-07
8.28281e-07
8.14343e-07
8.00982e-07
7.88381e-07
7.76689e-07
7.65747e-07
7.55814e-07
7.46851e-07
7.39093e-07
7.32572e-07
7.27875e-07
7.24751e-07
7.2311e-07
7.22833e-07
7.24344e-07
7.27839e-07
7.33889e-07
7.42368e-07
7.53394e-07
2.75872e-07
-1.07168e-07
3.74048e-07
-9.81765e-08
4.61818e-07
-8.77699e-08
5.21104e-07
-5.92863e-08
5.82885e-07
-6.17809e-08
6.28112e-07
-4.52263e-08
6.68168e-07
-4.00558e-08
7.25717e-07
-5.75499e-08
7.77481e-07
-5.17634e-08
-1.06168e-07
8.83649e-07
7.04091e-07
-1.65437e-07
7.55134e-07
-1.49219e-07
8.05789e-07
-1.38424e-07
8.39428e-07
-9.29257e-08
8.58973e-07
-8.13254e-08
8.9401e-07
-8.0264e-08
9.21113e-07
-6.71589e-08
9.46578e-07
-8.30146e-08
1.01259e-06
-1.17778e-07
-1.3772e-07
1.04414e-06
8.83491e-07
-1.77482e-07
8.94151e-07
-1.59879e-07
8.95348e-07
-1.39621e-07
9.18947e-07
-1.16525e-07
9.15971e-07
-7.83493e-08
9.58182e-07
-1.22475e-07
9.77268e-07
-8.62452e-08
9.99423e-07
-1.05169e-07
1.00763e-06
-1.25983e-07
-1.89737e-07
1.05964e-06
9.55185e-07
-1.79055e-07
9.53659e-07
-1.58353e-07
9.5229e-07
-1.38253e-07
9.64802e-07
-1.29037e-07
9.76251e-07
-8.97978e-08
9.85851e-07
-1.32075e-07
1.01114e-06
-1.11538e-07
1.01987e-06
-1.13892e-07
1.02342e-06
-1.29536e-07
-2.08772e-07
1.04245e-06
9.87113e-07
-1.68694e-07
9.89936e-07
-1.61176e-07
9.84838e-07
-1.33154e-07
9.92034e-07
-1.36233e-07
9.99776e-07
-9.754e-08
1.00418e-06
-1.36478e-07
1.01102e-06
-1.18373e-07
1.02941e-06
-1.32284e-07
1.04439e-06
-1.44519e-07
-2.22273e-07
1.05789e-06
1.01787e-06
-1.62984e-07
1.01132e-06
-1.54633e-07
1.00905e-06
-1.30878e-07
1.01109e-06
-1.38277e-07
1.02291e-06
-1.09355e-07
1.02266e-06
-1.36227e-07
1.03191e-06
-1.27628e-07
1.04106e-06
-1.41438e-07
1.04756e-06
-1.51014e-07
-2.19233e-07
1.04452e-06
1.03743e-06
-1.53803e-07
1.03411e-06
-1.51315e-07
1.03199e-06
-1.28761e-07
1.03083e-06
-1.3711e-07
1.03541e-06
-1.13944e-07
1.03471e-06
-1.35519e-07
1.03825e-06
-1.31171e-07
1.04433e-06
-1.47521e-07
1.04992e-06
-1.56599e-07
-2.1432e-07
1.045e-06
1.05853e-06
-1.47027e-07
1.05159e-06
-1.44372e-07
1.04895e-06
-1.26119e-07
1.0452e-06
-1.33369e-07
1.04888e-06
-1.17618e-07
1.04682e-06
-1.33463e-07
1.04786e-06
-1.32204e-07
1.04889e-06
-1.48561e-07
1.04969e-06
-1.57397e-07
-2.04378e-07
1.03975e-06
1.07491e-06
-1.38443e-07
1.06775e-06
-1.37212e-07
1.06384e-06
-1.22208e-07
1.05889e-06
-1.28424e-07
1.05836e-06
-1.17085e-07
1.05474e-06
-1.29845e-07
1.05198e-06
-1.29437e-07
1.05004e-06
-1.46627e-07
1.04818e-06
-1.55536e-07
-1.93376e-07
1.03718e-06
1.09004e-06
-1.29964e-07
1.08142e-06
-1.28589e-07
1.07609e-06
-1.16878e-07
1.06958e-06
-1.21913e-07
1.06653e-06
-1.14043e-07
1.06113e-06
-1.24438e-07
1.05692e-06
-1.25228e-07
1.05195e-06
-1.4166e-07
1.04565e-06
-1.49237e-07
-1.80583e-07
1.03286e-06
1.10277e-06
-1.20284e-07
1.09333e-06
-1.19156e-07
1.0864e-06
-1.09943e-07
1.07859e-06
-1.14106e-07
1.07321e-06
-1.08658e-07
1.06623e-06
-1.17465e-07
1.05929e-06
-1.18282e-07
1.05129e-06
-1.3366e-07
1.04356e-06
-1.4151e-07
-1.67418e-07
1.03039e-06
1.11379e-06
-1.09875e-07
1.10341e-06
-1.08778e-07
1.09506e-06
-1.01599e-07
1.08589e-06
-1.04929e-07
1.07839e-06
-1.01159e-07
1.06968e-06
-1.0876e-07
1.06153e-06
-1.10132e-07
1.05152e-06
-1.23645e-07
1.04082e-06
-1.30816e-07
-1.52527e-07
1.02593e-06
1.12353e-06
-9.84752e-08
1.11222e-06
-9.7468e-08
1.10241e-06
-9.17883e-08
1.09205e-06
-9.45685e-08
1.08286e-06
-9.19765e-08
1.0725e-06
-9.8394e-08
1.06232e-06
-9.99582e-08
1.05054e-06
-1.11861e-07
1.03844e-06
-1.18719e-07
-1.36777e-07
1.02269e-06
1.13184e-06
-8.62861e-08
1.11967e-06
-8.52981e-08
1.10868e-06
-8.07959e-08
1.09707e-06
-8.29569e-08
1.0863e-06
-8.12092e-08
1.0746e-06
-8.66914e-08
1.06315e-06
-8.85092e-08
1.04985e-06
-9.85659e-08
1.03595e-06
-1.04813e-07
-1.1995e-07
1.01912e-06
1.13973e-06
-7.31736e-08
1.12662e-06
-7.21863e-08
1.11438e-06
-6.85543e-08
1.1016e-06
-7.01729e-08
1.08941e-06
-6.90253e-08
1.07629e-06
-7.35712e-08
1.06331e-06
-7.55293e-08
1.04877e-06
-8.40215e-08
1.03367e-06
-8.97126e-08
-1.022e-07
1.01592e-06
1.14668e-06
-5.9492e-08
1.13274e-06
-5.82526e-08
1.1195e-06
-5.53127e-08
1.10563e-06
-5.63034e-08
1.09222e-06
-5.56144e-08
1.07795e-06
-5.92968e-08
1.06378e-06
-6.13629e-08
1.04808e-06
-6.83174e-08
1.03178e-06
-7.34143e-08
-8.35833e-08
1.01316e-06
1.15398e-06
-4.4752e-08
1.13889e-06
-4.31573e-08
1.12432e-06
-4.07472e-08
1.10907e-06
-4.10514e-08
1.09424e-06
-4.07849e-08
1.07858e-06
-4.36359e-08
1.06306e-06
-4.58436e-08
1.04617e-06
-5.14262e-08
1.02881e-06
-5.60527e-08
-6.40448e-08
1.00927e-06
1.15581e-06
-2.88e-08
1.1394e-06
-2.67469e-08
1.1235e-06
-2.48472e-08
1.10698e-06
-2.45286e-08
1.09087e-06
-2.46742e-08
1.07391e-06
-2.66749e-08
1.05703e-06
-2.89682e-08
1.03869e-06
-3.3085e-08
1.01979e-06
-3.71515e-08
-4.28736e-08
9.9862e-07
1.10436e-06
-1.0407e-08
1.08675e-06
-9.13884e-09
1.07011e-06
-8.2047e-09
1.05361e-06
-8.02775e-09
1.03747e-06
-8.53552e-09
1.0206e-06
-9.8026e-09
1.00321e-06
-1.15805e-08
9.84055e-07
-1.39317e-08
9.63533e-07
-1.66292e-08
-1.95843e-08
9.40244e-07
7.42987e-07
7.33848e-07
7.25643e-07
7.17616e-07
7.0908e-07
6.99278e-07
6.87697e-07
6.73765e-07
6.57136e-07
6.37552e-07
8.87193e-08
-8.87193e-08
7.96977e-08
9.02165e-09
4.48481e-08
3.48495e-08
-8.6758e-08
1.31606e-07
-3.61395e-07
2.74637e-07
-6.15844e-07
2.54449e-07
-7.90509e-07
1.74665e-07
-9.08767e-07
1.18257e-07
-9.62133e-07
5.3366e-08
-9.56218e-07
-5.91501e-09
-9.03443e-07
-5.27748e-08
-8.11335e-07
-9.21076e-08
-6.92311e-07
-1.19024e-07
-5.5177e-07
-1.40541e-07
-3.9897e-07
-1.528e-07
-2.35159e-07
-1.63811e-07
-7.7871e-08
-1.57288e-07
6.20206e-08
-1.39892e-07
1.77937e-07
-1.15917e-07
2.68744e-07
-9.08068e-08
3.37551e-07
-6.88067e-08
3.88487e-07
-5.09358e-08
4.24649e-07
-3.61626e-08
4.4801e-07
-2.33609e-08
4.59837e-07
-1.18271e-08
4.61325e-07
-1.48822e-09
4.54172e-07
7.15385e-09
4.40492e-07
1.36801e-08
4.22835e-07
1.76561e-08
4.0386e-07
1.89756e-08
3.85516e-07
1.83441e-08
3.69269e-07
1.62472e-08
3.55556e-07
1.37127e-08
3.44614e-07
1.09415e-08
3.35931e-07
8.68309e-09
3.29385e-07
6.54671e-09
3.24193e-07
5.19138e-09
3.20395e-07
3.79821e-09
3.17179e-07
3.21619e-09
2.34724e-09
8.04369e-08
-1.69156e-07
9.98862e-08
-1.04276e-08
-4.69012e-08
1.81637e-07
-3.2572e-07
4.10425e-07
-5.67347e-07
5.16264e-07
-7.34589e-07
4.21691e-07
-8.51125e-07
2.912e-07
-9.24209e-07
1.91341e-07
-9.42289e-07
7.14462e-08
-9.13001e-07
-3.52029e-08
-8.3619e-07
-1.29586e-07
-7.33713e-07
-1.94584e-07
-6.09781e-07
-2.42957e-07
-4.6726e-07
-2.83061e-07
-3.13497e-07
-3.06563e-07
-1.49616e-07
-3.27693e-07
9.10379e-09
-3.16008e-07
1.5488e-07
-2.85668e-07
2.7618e-07
-2.37217e-07
3.72829e-07
-1.87456e-07
4.49182e-07
-1.4516e-07
5.09977e-07
-1.11731e-07
5.5856e-07
-8.47458e-08
5.9752e-07
-6.23211e-08
6.28526e-07
-4.28331e-08
6.52252e-07
-2.52137e-08
6.68244e-07
-8.83773e-09
6.76789e-07
5.13423e-09
6.79103e-07
1.53429e-08
6.77333e-07
2.07449e-08
6.73341e-07
2.23369e-08
6.68872e-07
2.07163e-08
6.64545e-07
1.80393e-08
6.60961e-07
1.45256e-08
6.57834e-07
1.18098e-08
6.55357e-07
9.02391e-09
6.53038e-07
7.51057e-09
6.51068e-07
5.76828e-09
6.49071e-07
5.21276e-09
4.17495e-09
-3.86126e-08
-1.30544e-07
-1.57055e-07
1.08015e-07
-2.73046e-07
2.97628e-07
-4.03481e-07
5.4086e-07
-5.17681e-07
6.30464e-07
-6.04904e-07
5.08915e-07
-6.7962e-07
3.65916e-07
-7.19656e-07
2.31378e-07
-7.18445e-07
7.02348e-08
-6.73385e-07
-8.02625e-08
-5.91806e-07
-2.11165e-07
-4.87359e-07
-2.99031e-07
-3.78445e-07
-3.51871e-07
-2.60451e-07
-4.01056e-07
-1.33661e-07
-4.33352e-07
-1.29618e-09
-4.60058e-07
1.31543e-07
-4.48847e-07
2.55245e-07
-4.0937e-07
3.60519e-07
-3.4249e-07
4.41738e-07
-2.68675e-07
5.03415e-07
-2.06837e-07
5.52817e-07
-1.61132e-07
5.93108e-07
-1.25038e-07
6.25601e-07
-9.48139e-08
6.52895e-07
-7.01267e-08
6.7765e-07
-4.9969e-08
7.00121e-07
-3.1309e-08
7.18724e-07
-1.34683e-08
7.31536e-07
2.53063e-09
7.38635e-07
1.36461e-08
7.41353e-07
1.96191e-08
7.41827e-07
2.02421e-08
7.41501e-07
1.83648e-08
7.41403e-07
1.46242e-08
7.41702e-07
1.15106e-08
7.42408e-07
8.31778e-09
7.4332e-07
6.59868e-09
7.44092e-07
4.99664e-09
7.44832e-07
4.4723e-09
3.887e-09
-2.70207e-08
-1.03523e-07
-1.10241e-07
1.91236e-07
-1.88452e-07
3.75838e-07
-2.9417e-07
6.46578e-07
-3.65229e-07
7.01523e-07
-4.16516e-07
5.60201e-07
-4.54467e-07
4.03866e-07
-4.64806e-07
2.41718e-07
-4.43714e-07
4.91426e-08
-3.83785e-07
-1.40192e-07
-2.9723e-07
-2.9772e-07
-1.96873e-07
-3.99389e-07
-9.50167e-08
-4.53727e-07
1.1442e-09
-4.97217e-07
9.58509e-08
-5.28059e-07
1.92405e-07
-5.56612e-07
2.88202e-07
-5.44644e-07
3.73616e-07
-4.94784e-07
4.51635e-07
-4.20509e-07
5.15214e-07
-3.32254e-07
5.59926e-07
-2.51549e-07
5.9412e-07
-1.95326e-07
6.25e-07
-1.55917e-07
6.50797e-07
-1.20611e-07
6.69102e-07
-8.8431e-08
6.83044e-07
-6.39114e-08
6.97686e-07
-4.59513e-08
7.1484e-07
-3.06225e-08
7.32375e-07
-1.50044e-08
7.47146e-07
-1.12406e-09
7.57006e-07
9.75903e-09
7.62122e-07
1.51262e-08
7.63809e-07
1.66769e-08
7.63745e-07
1.46886e-08
7.63237e-07
1.20189e-08
7.6293e-07
8.62415e-09
7.63147e-07
6.38258e-09
7.63617e-07
4.52571e-09
7.64381e-07
3.70836e-09
3.22754e-09
-4.73633e-09
-9.87865e-08
-1.2417e-07
3.10669e-07
-1.31392e-07
3.83061e-07
-1.25493e-07
6.40679e-07
-1.20411e-07
6.96442e-07
-1.37049e-07
5.76839e-07
-1.52682e-07
4.19499e-07
-1.41744e-07
2.3078e-07
-1.08947e-07
1.63453e-08
-5.44056e-08
-1.94733e-07
1.26853e-08
-3.64811e-07
8.50173e-08
-4.71721e-07
1.61742e-07
-5.30452e-07
2.35521e-07
-5.70995e-07
3.11399e-07
-6.03937e-07
3.85211e-07
-6.30424e-07
4.5499e-07
-6.14423e-07
5.02636e-07
-5.4243e-07
5.36998e-07
-4.54872e-07
5.73462e-07
-3.68717e-07
6.03559e-07
-2.81646e-07
6.21656e-07
-2.13424e-07
6.38224e-07
-1.72485e-07
6.59009e-07
-1.41397e-07
6.77369e-07
-1.0679e-07
6.87037e-07
-7.35801e-08
6.90669e-07
-4.95827e-08
6.95414e-07
-3.53681e-08
7.05431e-07
-2.50216e-08
7.19899e-07
-1.55921e-08
7.35494e-07
-5.83574e-09
7.48963e-07
1.65709e-09
7.58573e-07
7.06666e-09
7.64331e-07
8.93126e-09
7.6715e-07
9.19971e-09
7.68248e-07
7.52618e-09
7.68601e-07
6.02951e-09
7.68716e-07
4.41049e-09
7.68922e-07
3.50253e-09
2.91666e-09
-4.35292e-08
-5.52573e-08
-4.60579e-08
3.13198e-07
5.03196e-08
2.86683e-07
8.25126e-08
6.08486e-07
1.22642e-07
6.56312e-07
1.46531e-07
5.52951e-07
1.70567e-07
3.95463e-07
2.04045e-07
1.97302e-07
2.38977e-07
-1.85865e-08
2.79104e-07
-2.3486e-07
3.14e-07
-3.99706e-07
3.47681e-07
-5.05402e-07
3.82093e-07
-5.64863e-07
4.22421e-07
-6.11324e-07
4.77427e-07
-6.58943e-07
5.28771e-07
-6.81767e-07
5.75094e-07
-6.60746e-07
6.07742e-07
-5.75078e-07
6.13107e-07
-4.60237e-07
6.1441e-07
-3.7002e-07
6.2953e-07
-2.96766e-07
6.44089e-07
-2.27983e-07
6.50242e-07
-1.78638e-07
6.58126e-07
-1.49281e-07
6.72925e-07
-1.21589e-07
6.86819e-07
-8.74738e-08
6.91985e-07
-5.47491e-08
6.89922e-07
-3.33047e-08
6.87999e-07
-2.30989e-08
6.91926e-07
-1.95192e-08
7.02573e-07
-1.64829e-08
7.17366e-07
-1.31353e-08
7.32806e-07
-8.37364e-09
7.46292e-07
-4.55524e-09
7.56402e-07
-9.10111e-10
7.63144e-07
7.8455e-10
7.67046e-07
2.12759e-09
7.69053e-07
2.40325e-09
7.69898e-07
2.65798e-09
2.62296e-09
-2.23229e-07
1.67971e-07
-3.98119e-08
1.29781e-07
1.1014e-07
1.36731e-07
3.12957e-07
4.05668e-07
4.31551e-07
5.37718e-07
4.95684e-07
4.88818e-07
5.3285e-07
3.58297e-07
5.59972e-07
1.7018e-07
5.82941e-07
-4.15546e-08
5.94756e-07
-2.46676e-07
5.96771e-07
-4.01721e-07
5.9938e-07
-5.08011e-07
6.10674e-07
-5.76158e-07
6.30416e-07
-6.31066e-07
6.57193e-07
-6.85719e-07
6.77757e-07
-7.02331e-07
6.79384e-07
-6.62373e-07
6.77329e-07
-5.73023e-07
6.69927e-07
-4.52835e-07
6.50142e-07
-3.50236e-07
6.40707e-07
-2.8733e-07
6.49938e-07
-2.37214e-07
6.60696e-07
-1.89396e-07
6.64797e-07
-1.53382e-07
6.69873e-07
-1.26665e-07
6.80648e-07
-9.82493e-08
6.91847e-07
-6.59483e-08
6.9698e-07
-3.84371e-08
6.95856e-07
-2.19755e-08
6.93345e-07
-1.70082e-08
6.94264e-07
-1.74016e-08
7.0057e-07
-1.94408e-08
7.11345e-07
-1.91494e-08
7.24567e-07
-1.77769e-08
7.37761e-07
-1.41038e-08
7.49243e-07
-1.06973e-08
7.57985e-07
-6.61501e-09
7.63874e-07
-3.48579e-09
7.6762e-07
-1.08753e-09
1.1292e-09
6.40713e-07
4.10908e-07
4.61018e-07
3.09476e-07
3.4539e-07
2.52359e-07
4.23208e-07
3.27851e-07
5.68375e-07
3.92551e-07
6.85184e-07
3.72009e-07
7.69615e-07
2.73866e-07
8.24242e-07
1.15552e-07
8.50269e-07
-6.75812e-08
8.49411e-07
-2.45818e-07
8.43441e-07
-3.9575e-07
8.4342e-07
-5.07991e-07
8.55096e-07
-5.87833e-07
8.71769e-07
-6.47739e-07
8.70734e-07
-6.84684e-07
8.50277e-07
-6.81875e-07
8.1436e-07
-6.26456e-07
7.72615e-07
-5.31278e-07
7.45865e-07
-4.26085e-07
7.28125e-07
-3.32496e-07
7.10835e-07
-2.70041e-07
7.03423e-07
-2.29801e-07
7.07627e-07
-1.93601e-07
7.13572e-07
-1.59327e-07
7.1685e-07
-1.29942e-07
7.21601e-07
-1.03e-07
7.31023e-07
-7.53704e-08
7.42896e-07
-5.03105e-08
7.52978e-07
-3.20572e-08
7.58905e-07
-2.29353e-08
7.60975e-07
-1.94719e-08
7.61295e-07
-1.97606e-08
7.62167e-07
-2.00211e-08
7.65372e-07
-2.09826e-08
7.71225e-07
-1.9957e-08
7.78993e-07
-1.8465e-08
7.87292e-07
-1.49143e-08
7.94421e-07
-1.06146e-08
8.00436e-07
-7.1021e-09
-1.99814e-09
1.02031e-06
4.34737e-07
9.5511e-07
3.74681e-07
8.65386e-07
3.42083e-07
8.21373e-07
3.71863e-07
8.38913e-07
3.75011e-07
8.93101e-07
3.17821e-07
9.59084e-07
2.07883e-07
1.01219e-06
6.24516e-08
1.04614e-06
-1.01538e-07
1.05448e-06
-2.54158e-07
1.05201e-06
-3.93282e-07
1.05939e-06
-5.15365e-07
1.0584e-06
-5.86849e-07
1.03431e-06
-6.23643e-07
9.88911e-07
-6.39287e-07
9.17292e-07
-6.10256e-07
8.3841e-07
-5.47573e-07
7.79916e-07
-4.72785e-07
7.49074e-07
-3.95243e-07
7.43702e-07
-3.27123e-07
7.4955e-07
-2.7589e-07
7.52944e-07
-2.33195e-07
7.50725e-07
-1.91382e-07
7.46651e-07
-1.55253e-07
7.44995e-07
-1.28286e-07
7.47168e-07
-1.05172e-07
7.52384e-07
-8.05866e-08
7.59635e-07
-5.75615e-08
7.68788e-07
-4.121e-08
7.7968e-07
-3.38278e-08
7.90591e-07
-3.0382e-08
7.98849e-07
-2.80194e-08
8.0248e-07
-2.36516e-08
8.01882e-07
-2.03848e-08
7.9911e-07
-1.71848e-08
7.96468e-07
-1.58229e-08
7.95735e-07
-1.41811e-08
7.96481e-07
-1.13608e-08
7.9907e-07
-9.69173e-09
-4.23117e-09
1.09579e-06
3.98589e-07
1.09538e-06
3.75098e-07
1.10297e-06
3.34491e-07
1.12694e-06
3.47886e-07
1.1554e-06
3.46554e-07
1.18683e-06
2.86391e-07
1.22189e-06
1.72824e-07
1.25502e-06
2.93182e-08
1.2769e-06
-1.23417e-07
1.27649e-06
-2.53749e-07
1.2502e-06
-3.66988e-07
1.21259e-06
-4.77759e-07
1.17629e-06
-5.50551e-07
1.11204e-06
-5.59393e-07
1.02068e-06
-5.47927e-07
9.33662e-07
-5.23235e-07
8.55592e-07
-4.69503e-07
7.98447e-07
-4.1564e-07
7.72195e-07
-3.68992e-07
7.65036e-07
-3.19964e-07
7.66959e-07
-2.77813e-07
7.75798e-07
-2.42034e-07
7.83544e-07
-1.99128e-07
7.81546e-07
-1.53255e-07
7.74017e-07
-1.20757e-07
7.72228e-07
-1.03383e-07
7.79457e-07
-8.7816e-08
7.88723e-07
-6.68275e-08
7.92871e-07
-4.53576e-08
7.92002e-07
-3.29592e-08
7.91303e-07
-2.96833e-08
7.94775e-07
-3.14914e-08
8.02115e-07
-3.09913e-08
8.10091e-07
-2.83609e-08
8.1544e-07
-2.25341e-08
8.16741e-07
-1.71232e-08
8.14671e-07
-1.21115e-08
8.11204e-07
-7.89421e-09
8.07392e-07
-5.87886e-09
-2.38654e-09
1.10155e-06
3.39495e-07
1.13097e-06
3.45675e-07
1.15615e-06
3.09315e-07
1.20771e-06
2.96326e-07
1.26415e-06
2.90108e-07
1.31276e-06
2.37786e-07
1.3454e-06
1.4018e-07
1.36171e-06
1.30106e-08
1.35827e-06
-1.19975e-07
1.33916e-06
-2.34636e-07
1.30189e-06
-3.2972e-07
1.23334e-06
-4.09209e-07
1.15449e-06
-4.71697e-07
1.08192e-06
-4.86825e-07
9.99774e-07
-4.65784e-07
9.28993e-07
-4.52454e-07
8.89188e-07
-4.29697e-07
8.60954e-07
-3.87406e-07
8.39842e-07
-3.4788e-07
8.27331e-07
-3.07453e-07