/*--------------------------------*- C++ -*----------------------------------*\
| =========                 |                                                 |
| \\      /  F ield         | OpenFOAM: The Open Source CFD Toolbox           |
|  \\    /   O peration     | Version:  2112                                  |
|   \\  /    A nd           | Website:  www.openfoam.com                      |
|    \\/     M anipulation  |                                                 |
\*---------------------------------------------------------------------------*/
FoamFile
{
    version     2.0;
    format      ascii;
    arch        "LSB;label=32;scalar=64";
    class       volVectorField;
    location    "0.36";
    object      U;
}
// * * * * * * * * * * * * * * * * * * * * * * * * * * * * * * * * * * * * * //

dimensions      [0 1 -1 0 0 0 0];

internalField   nonuniform List<vector> 
1880
(
(0.0989315 0.000618112 0)
(0.0984718 0.00115163 0)
(0.0971825 0.00129816 0)
(0.0959715 0.00134164 0)
(0.0939784 0.00133692 0)
(0.0925685 0.00142118 0)
(0.0903954 0.00136622 0)
(0.0890377 0.00146972 0)
(0.0868256 0.00137396 0)
(0.0854301 0.00150638 0)
(0.0830603 0.00129153 0)
(0.0817058 0.00151279 0)
(0.0792274 0.00127849 0)
(0.0777885 0.00163448 0)
(0.0751472 0.00116702 0)
(0.0737107 0.00169315 0)
(0.0708247 0.00117914 0)
(0.0693106 0.00186707 0)
(0.0660096 0.00132037 0)
(0.0645831 0.00185127 0)
(0.0604246 0.00151947 0)
(0.0594305 0.00189868 0)
(0.0538255 0.00205159 0)
(0.053127 0.00234306 0)
(0.0460461 0.00233194 0)
(0.0448885 0.00280546 0)
(0.0370346 0.0021463 0)
(0.0347824 0.00373793 0)
(0.0261735 0.00227798 0)
(0.0213429 0.00474025 0)
(0.0995771 0.000793474 0)
(0.100752 0.00130133 0)
(0.100183 0.00175787 0)
(0.101439 0.00165079 0)
(0.100659 0.00193997 0)
(0.101664 0.00181325 0)
(0.100809 0.0021999 0)
(0.101405 0.00190208 0)
(0.100932 0.00242944 0)
(0.100749 0.00198233 0)
(0.101056 0.002616 0)
(0.0996882 0.00207185 0)
(0.100938 0.00273957 0)
(0.0986124 0.00228582 0)
(0.100134 0.00293911 0)
(0.097736 0.00257217 0)
(0.0985718 0.00306587 0)
(0.0964439 0.00313889 0)
(0.0969827 0.00301622 0)
(0.0943831 0.00406869 0)
(0.0949482 0.00335431 0)
(0.091757 0.00455063 0)
(0.0915792 0.00463675 0)
(0.0886135 0.00481391 0)
(0.0878687 0.00616808 0)
(0.0828161 0.00633704 0)
(0.0842572 0.0073562 0)
(0.0738622 0.00803487 0)
(0.0774171 0.0103951 0)
(0.0629906 0.0100549 0)
(0.0997674 0.000362281 0)
(0.100384 0.000527756 0)
(0.100383 0.00109264 0)
(0.100847 0.00105404 0)
(0.101177 0.00135857 0)
(0.101148 0.00134664 0)
(0.101783 0.00164671 0)
(0.10128 0.00144748 0)
(0.10218 0.00207914 0)
(0.101438 0.00146244 0)
(0.102392 0.00243697 0)
(0.101579 0.00174808 0)
(0.102507 0.00239156 0)
(0.101588 0.00246146 0)
(0.102324 0.00236027 0)
(0.101655 0.00284784 0)
(0.101952 0.00317836 0)
(0.101241 0.00265417 0)
(0.101727 0.00443248 0)
(0.100077 0.0029389 0)
(0.10156 0.00512987 0)
(0.0987101 0.00427922 0)
(0.100203 0.00611629 0)
(0.0978025 0.00514725 0)
(0.0979039 0.0087963 0)
(0.0955249 0.00606147 0)
(0.0961066 0.0110461 0)
(0.0913411 0.0100649 0)
(0.0928089 0.0132979 0)
(0.0866462 0.0140387 0)
(0.0997737 0.000415599 0)
(0.100347 0.000358675 0)
(0.100082 0.00123713 0)
(0.100621 0.000886424 0)
(0.10066 0.00162433 0)
(0.100857 0.00120674 0)
(0.101291 0.00186102 0)
(0.100932 0.00145944 0)
(0.101797 0.00211398 0)
(0.101103 0.00166556 0)
(0.102023 0.00239415 0)
(0.101424 0.00197733 0)
(0.102127 0.00255485 0)
(0.101622 0.0024684 0)
(0.102187 0.00277254 0)
(0.10163 0.00289153 0)
(0.102346 0.00347686 0)
(0.101335 0.00311348 0)
(0.102221 0.00449979 0)
(0.101159 0.00369733 0)
(0.10182 0.00530832 0)
(0.100648 0.00511301 0)
(0.101422 0.00645929 0)
(0.0997227 0.00640165 0)
(0.10053 0.00879589 0)
(0.0991302 0.00839139 0)
(0.0987456 0.0109472 0)
(0.0978767 0.0122153 0)
(0.0979135 0.0148174 0)
(0.0948524 0.0161737 0)
(0.0998672 0.000264851 0)
(0.100207 0.000249447 0)
(0.100092 0.000816467 0)
(0.100403 0.000712707 0)
(0.100497 0.00116537 0)
(0.100705 0.00100685 0)
(0.100951 0.0014882 0)
(0.100941 0.00114696 0)
(0.101326 0.00191077 0)
(0.101213 0.00122548 0)
(0.101543 0.00230684 0)
(0.10149 0.00155215 0)
(0.101787 0.00249647 0)
(0.10167 0.00210259 0)
(0.101866 0.00284011 0)
(0.101878 0.00236781 0)
(0.101913 0.00386266 0)
(0.101912 0.00249542 0)
(0.101773 0.00497315 0)
(0.101949 0.00331841 0)
(0.101516 0.00563573 0)
(0.101767 0.00489886 0)
(0.101214 0.00695803 0)
(0.101397 0.00622377 0)
(0.100811 0.00949752 0)
(0.100991 0.00822231 0)
(0.100162 0.0118528 0)
(0.100409 0.0119878 0)
(0.0997651 0.0154154 0)
(0.100034 0.0160475 0)
(0.0998815 0.000244983 0)
(0.100179 0.000185305 0)
(0.100088 0.000743299 0)
(0.100288 0.000617733 0)
(0.10045 0.00108322 0)
(0.100507 0.000970629 0)
(0.100897 0.0013402 0)
(0.100722 0.00123598 0)
(0.101245 0.00165522 0)
(0.101093 0.00141017 0)
(0.101347 0.00205438 0)
(0.101523 0.00166992 0)
(0.101536 0.00241941 0)
(0.101757 0.00211268 0)
(0.101743 0.00282013 0)
(0.101906 0.00252269 0)
(0.10197 0.00366373 0)
(0.102033 0.00288364 0)
(0.101835 0.00474431 0)
(0.10232 0.00371175 0)
(0.101752 0.00555082 0)
(0.102196 0.00531288 0)
(0.101823 0.00682018 0)
(0.102015 0.00688531 0)
(0.101706 0.00913098 0)
(0.102095 0.00906403 0)
(0.101492 0.0115174 0)
(0.101972 0.0124817 0)
(0.102023 0.0150919 0)
(0.101951 0.0165895 0)
(0.0999159 0.00015174 0)
(0.100136 0.000205841 0)
(0.100089 0.000523555 0)
(0.100233 0.000557999 0)
(0.100363 0.000832062 0)
(0.100472 0.000824674 0)
(0.100738 0.00114545 0)
(0.100716 0.000995058 0)
(0.101095 0.00153292 0)
(0.101076 0.00112637 0)
(0.101276 0.00193727 0)
(0.101484 0.00142047 0)
(0.101524 0.00229413 0)
(0.101802 0.00188117 0)
(0.101712 0.00275807 0)
(0.102084 0.00227586 0)
(0.102015 0.00361719 0)
(0.102254 0.00274009 0)
(0.102086 0.00462097 0)
(0.102614 0.00368653 0)
(0.102155 0.00549426 0)
(0.102739 0.00514741 0)
(0.10236 0.00691593 0)
(0.102812 0.0067082 0)
(0.102622 0.00911843 0)
(0.103148 0.00893017 0)
(0.102817 0.0114683 0)
(0.103589 0.0120566 0)
(0.103558 0.0149344 0)
(0.104366 0.0156087 0)
(0.0999374 0.000108815 0)
(0.100094 0.000188416 0)
(0.100117 0.000393494 0)
(0.100161 0.000499443 0)
(0.100386 0.000639543 0)
(0.10038 0.000774526 0)
(0.100744 0.000897088 0)
(0.100649 0.000987927 0)
(0.101072 0.00124206 0)
(0.101085 0.00114037 0)
(0.101234 0.00166563 0)
(0.101538 0.0013812 0)
(0.101557 0.00210407 0)
(0.101842 0.00180493 0)
(0.101878 0.00256978 0)
(0.102144 0.00229387 0)
(0.102268 0.00331728 0)
(0.102456 0.00287476 0)
(0.102417 0.00428598 0)
(0.102934 0.00381755 0)
(0.102699 0.00521477 0)
(0.103184 0.00521903 0)
(0.103114 0.00662589 0)
(0.103526 0.00679088 0)
(0.103603 0.00868632 0)
(0.104132 0.00897289 0)
(0.104218 0.0109511 0)
(0.104855 0.0118292 0)
(0.105359 0.0140592 0)
(0.106072 0.0152699 0)
(0.0999498 5.50698e-05 0)
(0.10008 0.000184144 0)
(0.100114 0.00026952 0)
(0.100156 0.00042363 0)
(0.100359 0.000490471 0)
(0.100387 0.000625491 0)
(0.100705 0.000756152 0)
(0.100665 0.000790807 0)
(0.101061 0.00109314 0)
(0.101108 0.000955447 0)
(0.101276 0.00146214 0)
(0.101581 0.00123623 0)
(0.101649 0.0018669 0)
(0.10195 0.00166283 0)
(0.102013 0.0023487 0)
(0.102324 0.00214442 0)
(0.102518 0.00307222 0)
(0.102689 0.00277063 0)
(0.102818 0.0039862 0)
(0.103284 0.00371231 0)
(0.103235 0.00495474 0)
(0.10373 0.0050118 0)
(0.103813 0.00634139 0)
(0.10428 0.00655185 0)
(0.104551 0.00825662 0)
(0.10514 0.00862329 0)
(0.105435 0.0104432 0)
(0.106224 0.0111808 0)
(0.106821 0.0133353 0)
(0.107787 0.0141957 0)
(0.0999645 1.76738e-05 0)
(0.100057 0.000164424 0)
(0.100129 0.00015512 0)
(0.10014 0.000351948 0)
(0.100373 0.000316811 0)
(0.100388 0.000521694 0)
(0.10071 0.000539374 0)
(0.100701 0.000675532 0)
(0.101071 0.000846735 0)
(0.101179 0.000837198 0)
(0.101334 0.00120033 0)
(0.101655 0.00110292 0)
(0.101802 0.00159855 0)
(0.102038 0.00153232 0)
(0.102245 0.00204473 0)
(0.1025 0.00205336 0)
(0.102798 0.00270376 0)
(0.102987 0.00269836 0)
(0.103206 0.00359292 0)
(0.103673 0.00359562 0)
(0.103806 0.00457134 0)
(0.104251 0.00481262 0)
(0.104536 0.00589114 0)
(0.105018 0.00630105 0)
(0.105472 0.00765081 0)
(0.106082 0.00824846 0)
(0.10662 0.00971207 0)
(0.107417 0.0105582 0)
(0.108228 0.0122611 0)
(0.109241 0.0133084 0)
(0.0999716 -1.26441e-05 0)
(0.100049 0.000127439 0)
(0.100131 6.19498e-05 0)
(0.100153 0.000244527 0)
(0.100377 0.000182871 0)
(0.100427 0.000355361 0)
(0.100723 0.0003752 0)
(0.100765 0.00048228 0)
(0.101116 0.00064022 0)
(0.101265 0.000655543 0)
(0.101428 0.000936993 0)
(0.101764 0.000929568 0)
(0.101958 0.00130479 0)
(0.102196 0.00133897 0)
(0.102461 0.00174649 0)
(0.10273 0.00183288 0)
(0.103098 0.00237133 0)
(0.103302 0.00247254 0)
(0.103609 0.00320364 0)
(0.1041 0.00333738 0)
(0.104343 0.00415271 0)
(0.104812 0.00446619 0)
(0.105223 0.00539427 0)
(0.105747 0.00586232 0)
(0.106335 0.00701478 0)
(0.107007 0.00764837 0)
(0.107669 0.00893122 0)
(0.108557 0.00971194 0)
(0.109464 0.0112119 0)
(0.110556 0.0121168 0)
(0.0999802 -3.86748e-05 0)
(0.100041 8.24488e-05 0)
(0.10014 -3.53198e-05 0)
(0.10017 0.00013646 0)
(0.100397 3.19378e-05 0)
(0.100479 0.000204533 0)
(0.100756 0.000183417 0)
(0.100851 0.00031329 0)
(0.101181 0.000414773 0)
(0.101372 0.000483023 0)
(0.101552 0.000675663 0)
(0.101886 0.000746558 0)
(0.102152 0.00101018 0)
(0.102366 0.00114447 0)
(0.102703 0.00141953 0)
(0.102995 0.00162088 0)
(0.103395 0.00200726 0)
(0.103655 0.00222249 0)
(0.104013 0.00279447 0)
(0.10453 0.0030401 0)
(0.104893 0.00368945 0)
(0.10536 0.00409164 0)
(0.105886 0.00483069 0)
(0.10646 0.00538244 0)
(0.107146 0.00630613 0)
(0.107872 0.00699936 0)
(0.108647 0.00806027 0)
(0.109581 0.00885251 0)
(0.11059 0.0100476 0)
(0.111714 0.0109706 0)
(0.0999853 -5.95647e-05 0)
(0.100042 1.71248e-05 0)
(0.100151 -0.000133296 0)
(0.100204 -9.15636e-06 0)
(0.100432 -0.000128554 0)
(0.100554 1.57042e-07 0)
(0.10082 -3.23446e-05 0)
(0.100964 7.64463e-05 0)
(0.101284 0.000146517 0)
(0.101507 0.000231818 0)
(0.101702 0.000357845 0)
(0.102049 0.00047159 0)
(0.102356 0.000662029 0)
(0.102581 0.000831321 0)
(0.102957 0.00105133 0)
(0.103286 0.00127181 0)
(0.103714 0.0015928 0)
(0.104021 0.00183738 0)
(0.104421 0.00231224 0)
(0.104982 0.00261045 0)
(0.105423 0.00314848 0)
(0.105913 0.00356857 0)
(0.106525 0.00419145 0)
(0.107148 0.00473781 0)
(0.107904 0.00552208 0)
(0.108691 0.00618827 0)
(0.109536 0.00710621 0)
(0.110522 0.00783711 0)
(0.111599 0.00884738 0)
(0.112751 0.00966816 0)
(0.0999902 -8.12234e-05 0)
(0.100042 -5.323e-05 0)
(0.100165 -0.000233796 0)
(0.100243 -0.000149237 0)
(0.100476 -0.000279399 0)
(0.10064 -0.000175997 0)
(0.1009 -0.000217927 0)
(0.10109 -0.000113834 0)
(0.101409 -6.97939e-05 0)
(0.101658 3.31569e-05 0)
(0.101882 0.000108329 0)
(0.102235 0.000253319 0)
(0.102585 0.000381919 0)
(0.102826 0.000581185 0)
(0.10323 0.000743334 0)
(0.103611 0.000983045 0)
(0.104048 0.00123583 0)
(0.104406 0.00149095 0)
(0.104852 0.00188101 0)
(0.105439 0.00221119 0)
(0.105956 0.00264289 0)
(0.106469 0.00307494 0)
(0.10714 0.00357995 0)
(0.107823 0.00411023 0)
(0.108628 0.00476116 0)
(0.109462 0.00539203 0)
(0.11037 0.00616311 0)
(0.111384 0.00685616 0)
(0.112519 0.00767651 0)
(0.11368 0.00843798 0)
(0.099994 -0.00010981 0)
(0.100055 -0.000163376 0)
(0.1002 -0.000384904 0)
(0.100318 -0.000366863 0)
(0.100567 -0.000509914 0)
(0.100777 -0.000449642 0)
(0.101041 -0.000502112 0)
(0.10127 -0.000419225 0)
(0.101591 -0.00040039 0)
(0.101858 -0.000305424 0)
(0.102107 -0.000269329 0)
(0.10247 -0.000130331 0)
(0.102846 -3.84202e-05 0)
(0.103111 0.000146901 0)
(0.103537 0.000284503 0)
(0.103958 0.000504543 0)
(0.104406 0.000713552 0)
(0.104805 0.000957755 0)
(0.105293 0.00128652 0)
(0.105909 0.00161857 0)
(0.106484 0.00197734 0)
(0.107024 0.0023782 0)
(0.107744 0.00280897 0)
(0.108472 0.00329066 0)
(0.109315 0.00384925 0)
(0.110185 0.00442059 0)
(0.111147 0.0050838 0)
(0.112185 0.00570956 0)
(0.113369 0.00639696 0)
(0.114539 0.00705372 0)
(0.0999967 -0.000133025 0)
(0.100068 -0.000251092 0)
(0.100243 -0.000489475 0)
(0.100409 -0.000505588 0)
(0.100688 -0.000641259 0)
(0.100944 -0.000602987 0)
(0.101222 -0.000658144 0)
(0.101482 -0.000593023 0)
(0.101811 -0.000593144 0)
(0.102093 -0.000512281 0)
(0.102377 -0.000500792 0)
(0.10275 -0.000368036 0)
(0.103153 -0.000303804 0)
(0.103446 -0.000130801 0)
(0.103896 -1.20697e-05 0)
(0.104354 0.000189403 0)
(0.104823 0.000358737 0)
(0.105252 0.000581173 0)
(0.105792 0.000854074 0)
(0.106413 0.00117496 0)
(0.10704 0.0014641 0)
(0.107611 0.00182872 0)
(0.108378 0.00219071 0)
(0.109144 0.0026104 0)
(0.110027 0.00307169 0)
(0.110905 0.00357404 0)
(0.111921 0.0041276 0)
(0.112953 0.00469845 0)
(0.114182 0.0052751 0)
(0.115333 0.00586542 0)
(0.0999986 -0.000218656 0)
(0.100112 -0.000508001 0)
(0.100343 -0.000818576 0)
(0.100574 -0.000893428 0)
(0.100885 -0.00102822 0)
(0.101182 -0.00101645 0)
(0.101473 -0.00107613 0)
(0.10175 -0.00103157 0)
(0.102094 -0.00104569 0)
(0.102384 -0.000986322 0)
(0.102716 -0.0009866 0)
(0.103086 -0.000865277 0)
(0.103515 -0.000812822 0)
(0.103822 -0.000667109 0)
(0.104312 -0.000566981 0)
(0.104774 -0.000406097 0)
(0.105272 -0.000274133 0)
(0.105699 -7.40156e-05 0)
(0.106304 0.00015249 0)
(0.106907 0.000429565 0)
(0.107601 0.000653825 0)
(0.108178 0.000965075 0)
(0.109004 0.00128362 0)
(0.109755 0.00165064 0)
(0.110696 0.00204535 0)
(0.11155 0.00247847 0)
(0.112657 0.00293678 0)
(0.113676 0.00342106 0)
(0.114991 0.00389467 0)
(0.116124 0.00438199 0)
(0.0999917 -0.000239491 0)
(0.100225 -0.000583749 0)
(0.100573 -0.000862198 0)
(0.100937 -0.000944077 0)
(0.101288 -0.00106087 0)
(0.101631 -0.001076 0)
(0.101916 -0.00114318 0)
(0.102203 -0.00112902 0)
(0.102538 -0.0011589 0)
(0.102829 -0.00113893 0)
(0.103176 -0.00114168 0)
(0.103523 -0.00104216 0)
(0.103937 -0.00102051 0)
(0.104226 -0.000920272 0)
(0.10471 -0.000839238 0)
(0.105126 -0.000712034 0)
(0.105632 -0.000609845 0)
(0.106016 -0.000444298 0)
(0.106637 -0.000259955 0)
(0.107168 -2.58239e-05 0)
(0.107889 0.000153542 0)
(0.108449 0.000430126 0)
(0.109309 0.000703672 0)
(0.110023 0.000993208 0)
(0.110993 0.00129786 0)
(0.111809 0.00165061 0)
(0.112953 0.00202773 0)
(0.113962 0.00246348 0)
(0.115314 0.00288667 0)
(0.116466 0.00333573 0)
(0.0999742 -0.000694701 0)
(0.100351 -0.00135468 0)
(0.100706 -0.00157916 0)
(0.101105 -0.00160766 0)
(0.101309 -0.00167375 0)
(0.101581 -0.0017199 0)
(0.101636 -0.00177371 0)
(0.101809 -0.00176441 0)
(0.101877 -0.00176715 0)
(0.102029 -0.0017606 0)
(0.102053 -0.00173515 0)
(0.102205 -0.00163882 0)
(0.102253 -0.00161001 0)
(0.102381 -0.00153973 0)
(0.102491 -0.00147776 0)
(0.102674 -0.00138581 0)
(0.102749 -0.0012832 0)
(0.10296 -0.00112329 0)
(0.103226 -0.000980504 0)
(0.103603 -0.00083499 0)
(0.103927 -0.00072476 0)
(0.104338 -0.000508826 0)
(0.104793 -0.000281103 0)
(0.105418 -3.3374e-05 0)
(0.106108 0.000191806 0)
(0.106993 0.000446798 0)
(0.107939 0.000675945 0)
(0.10907 0.000972694 0)
(0.11023 0.00125411 0)
(0.111583 0.00159401 0)
(0.0990218 -0.000605416 0)
(0.0984525 -0.00114319 0)
(0.0974259 -0.00127612 0)
(0.0960124 -0.00128017 0)
(0.0943719 -0.00130188 0)
(0.0927897 -0.00132407 0)
(0.0911216 -0.00132822 0)
(0.0895996 -0.00131327 0)
(0.0880206 -0.00130566 0)
(0.086517 -0.00127508 0)
(0.0849367 -0.00119748 0)
(0.0835812 -0.00114527 0)
(0.0820991 -0.00114353 0)
(0.0807852 -0.00109893 0)
(0.0794208 -0.00100828 0)
(0.0782951 -0.000921117 0)
(0.0770597 -0.000880105 0)
(0.0761028 -0.000838404 0)
(0.0750789 -0.000783118 0)
(0.0743436 -0.000688003 0)
(0.0734987 -0.000555761 0)
(0.0730547 -0.000413616 0)
(0.0725383 -0.000334485 0)
(0.0724549 -0.000290261 0)
(0.0721928 -0.000245022 0)
(0.0724214 -0.000136523 0)
(0.0724703 4.00585e-05 0)
(0.0731587 0.000264264 0)
(0.0736581 0.000478077 0)
(0.0749103 0.000659006 0)
(0.0131351 0.0035127 0)
(0.0425046 0.0138296 0)
(0.0353437 0.0142716 0)
(0.0639341 0.0261569 8.83017e-22)
(0.0498483 0.0214637 6.88249e-22)
(0.0845061 0.0350827 0)
(0.0612881 0.0287621 2.87705e-22)
(0.101926 0.0416648 3.53247e-23)
(0.0779494 0.0361958 6.00047e-22)
(0.125124 0.0451468 0)
(0.0666881 0.0134175 0)
(0.0756409 0.0219421 0)
(0.0810891 0.0225445 0)
(0.0914502 0.0347965 0)
(0.0921344 0.032524 0)
(0.103533 0.0441916 1.8259e-22)
(0.104342 0.0409004 6.1209e-23)
(0.117366 0.0496119 -7.77856e-23)
(0.1192 0.0457741 -4.7359e-22)
(0.139926 0.0573664 -4.66239e-22)
(0.0873195 0.0219523 0)
(0.0913497 0.0223119 0)
(0.0943144 0.0277185 0)
(0.0982976 0.0313228 0)
(0.10292 0.0382727 0)
(0.107591 0.0342004 -1.82588e-22)
(0.115498 0.0438593 -6.12083e-23)
(0.122678 0.0412091 7.77852e-23)
(0.126158 0.039941 2.51863e-22)
(0.136298 0.0386583 4.66248e-22)
(0.095615 0.0199488 -3.8532e-22)
(0.0978529 0.0253119 0)
(0.100703 0.0265162 -3.09285e-22)
(0.103342 0.0300075 -2.59268e-22)
(0.108685 0.0350821 -1.81353e-22)
(0.112918 0.0336892 0)
(0.117663 0.0368553 0)
(0.125816 0.0418624 1.26217e-22)
(0.130206 0.0422068 2.68057e-22)
(0.134668 0.0364083 4.19688e-22)
(0.0988004 0.0214478 3.85322e-22)
(0.101505 0.0219335 0)
(0.104496 0.0269147 3.09285e-22)
(0.107151 0.0275343 2.59269e-22)
(0.111091 0.0340158 1.81353e-22)
(0.11647 0.0307773 0)
(0.118726 0.0344177 0)
(0.125867 0.0351103 -1.26217e-22)
(0.132751 0.0359592 -2.68055e-22)
(0.138439 0.0297408 -4.19692e-22)
(0.102333 0.0197509 0)
(0.104315 0.0221657 -2.78627e-22)
(0.106772 0.0249888 0)
(0.109676 0.0256127 -1.84338e-22)
(0.113527 0.0298964 0)
(0.118662 0.0289761 0)
(0.121501 0.0308927 0)
(0.127565 0.0321656 -1.45307e-22)
(0.133772 0.0336934 0)
(0.137997 0.027786 0)
(0.104413 0.0194602 2.74613e-22)
(0.106588 0.0200282 5.25515e-22)
(0.109264 0.0236104 2.05212e-22)
(0.112413 0.0236292 1.84338e-22)
(0.115321 0.0274781 0)
(0.120026 0.0263966 -2.58651e-23)
(0.123139 0.0282542 0)
(0.128076 0.0279868 1.45307e-22)
(0.134044 0.028746 0)
(0.138529 0.0238939 0)
(0.106667 0.0178725 -2.74613e-22)
(0.108738 0.0189508 -2.46888e-22)
(0.11115 0.0215775 -2.05213e-22)
(0.114164 0.0217898 0)
(0.117146 0.0245135 0)
(0.121353 0.0240209 2.58651e-23)
(0.124748 0.0251121 0)
(0.128991 0.0249583 0)
(0.134163 0.0259507 0)
(0.138176 0.0218735 0)
(0.108534 0.0167565 0)
(0.110491 0.0173121 -1.94913e-22)
(0.11289 0.0197109 0)
(0.115827 0.0197949 -1.11262e-22)
(0.118627 0.0219431 0)
(0.122317 0.0215543 0)
(0.125721 0.0227267 7.30504e-23)
(0.129514 0.0219333 1.54028e-22)
(0.13401 0.0220534 0)
(0.137846 0.019005 3.29839e-22)
(0.110193 0.0152264 0)
(0.112084 0.0158474 1.94914e-22)
(0.114368 0.0177219 0)
(0.117112 0.0179014 1.11262e-22)
(0.119874 0.019548 0)
(0.123135 0.0192094 0)
(0.126432 0.0199266 -7.30505e-23)
(0.130105 0.0192497 -1.54028e-22)
(0.133894 0.019589 0)
(0.137138 0.0169458 -3.2984e-22)
(0.111652 0.0137774 9.07605e-23)
(0.11344 0.0142724 0)
(0.115644 0.0158241 0)
(0.118221 0.0159276 4.03697e-23)
(0.120857 0.0171948 0)
(0.123875 0.016959 0)
(0.12698 0.0176566 0)
(0.130216 0.0167199 -7.54668e-23)
(0.13359 0.0166396 0)
(0.136785 0.0145775 0)
(0.1129 0.0122744 -7.91349e-24)
(0.114616 0.0127249 0)
(0.116726 0.0139601 5.4357e-23)
(0.119143 0.0141096 -5.70946e-24)
(0.121652 0.0150809 0)
(0.124414 0.0148018 0)
(0.127337 0.0152701 -4.18044e-23)
(0.130404 0.0144964 7.54669e-23)
(0.13339 0.0144148 -1.07218e-22)
(0.136156 0.0125957 -1.41956e-22)
(0.114014 0.0107438 -6.70338e-24)
(0.115664 0.0111344 0)
(0.117662 0.0121317 -5.64143e-24)
(0.119925 0.0122216 -4.63097e-24)
(0.122319 0.0129744 8.96976e-24)
(0.1249 0.01276 1.50287e-23)
(0.127584 0.0131185 -3.08507e-25)
(0.130356 0.0123213 -7.18524e-23)
(0.133106 0.0121044 4.27966e-24)
(0.13571 0.0106271 6.60144e-24)
(0.114968 0.00930347 -7.61439e-23)
(0.116557 0.00964669 0)
(0.118461 0.0104471 -4.87157e-23)
(0.120592 0.0105423 -3.00294e-23)
(0.122844 0.0111102 -8.96977e-24)
(0.125249 0.01088 -3.15794e-23)
(0.127774 0.0111011 4.21131e-23)
(0.130345 0.0104188 7.18525e-23)
(0.132841 0.0101662 1.02939e-22)
(0.135214 0.00887659 1.35355e-22)
(0.115869 0.00775737 0)
(0.117407 0.00804984 0)
(0.119205 0.00869023 0)
(0.121191 0.00876049 0)
(0.123317 0.00919115 0)
(0.125555 0.00899746 1.65507e-23)
(0.127883 0.00912883 0)
(0.13024 0.00851557 0)
(0.132565 0.00823321 0)
(0.134778 0.00716527 0)
(0.116676 0.00644873 0)
(0.118143 0.00671638 0)
(0.119875 0.00722959 0)
(0.121724 0.00729432 0)
(0.123742 0.00759959 0)
(0.125814 0.00740064 8.93949e-24)
(0.128007 0.00742833 0)
(0.130179 0.00688589 0)
(0.132345 0.00657835 0)
(0.134389 0.00566248 0)
(0.117544 0.00485184 0)
(0.118884 0.00509666 0)
(0.120561 0.0055076 1.72982e-23)
(0.12218 0.00558358 0)
(0.124101 0.0058083 8.77498e-25)
(0.125924 0.00564975 -8.93951e-24)
(0.128003 0.00563011 0)
(0.129928 0.00517771 -3.16346e-23)
(0.132 0.00488321 0)
(0.133834 0.00414143 0)
(0.11794 0.00374693 0)
(0.118982 0.0039957 0)
(0.120697 0.00430907 -1.72983e-23)
(0.121965 0.00437169 0)
(0.123909 0.00447688 -8.77501e-25)
(0.125344 0.00429312 0)
(0.127433 0.00417098 0)
(0.128932 0.0037465 3.16348e-23)
(0.130999 0.00341513 0)
(0.132364 0.00278625 0)
(0.112973 0.00190001 -6.84042e-24)
(0.113501 0.00214356 -5.51348e-24)
(0.11523 0.00239098 -3.97765e-24)
(0.115994 0.00250162 0)
(0.118046 0.0025746 -1.82287e-25)
(0.11894 0.00247654 0)
(0.121152 0.00235644 4.6398e-24)
(0.121952 0.00207129 0)
(0.124082 0.00179665 1.04226e-23)
(0.124504 0.00137449 1.36046e-23)
(0.0759002 0.000771032 6.83964e-24)
(0.0765024 0.000803399 5.5128e-24)
(0.0779789 0.000794344 3.97713e-24)
(0.0788281 0.000740833 0)
(0.0805658 0.000651281 1.8226e-25)
(0.0813641 0.000530263 0)
(0.0830689 0.000384909 -4.63905e-24)
(0.0834763 0.000221187 0)
(0.0848594 3.65917e-05 -1.04207e-23)
(0.0845168 -0.000146008 -1.3602e-23)
(0.00866893 -0.00103746 0)
(0.0153889 0.00657655 0)
(0.00737525 0.00713753 0)
(0.00573332 0.00511541 0)
(-0.0290096 0.0169615 0)
(-0.0740068 0.0161011 0)
(-0.101595 0.0110804 0)
(-0.122057 0.00754082 0)
(-0.13306 0.00449062 0)
(-0.134775 0.000818875 0)
(-0.131284 -0.00112623 0)
(-0.11933 -0.00398948 0)
(-0.106628 -0.00473931 0)
(-0.0855056 -0.0061575 0)
(-0.0677612 -0.0066246 0)
(-0.043371 -0.00704663 0)
(-0.0217764 -0.00673394 0)
(-0.000390734 -0.00576123 0)
(0.0173738 -0.00454219 0)
(0.03179 -0.00327014 0)
(0.0428484 -0.00216236 0)
(0.0511827 -0.0012682 0)
(0.0572772 -0.000524112 0)
(0.0615046 0.000123442 0)
(0.0639777 0.000692801 0)
(0.0648731 0.00116882 0)
(0.064383 0.00153161 0)
(0.0628367 0.00171753 0)
(0.060528 0.00171515 0)
(0.0578973 0.00156498 0)
(0.055216 0.00132519 0)
(0.0527886 0.00105066 0)
(0.0506697 0.000787146 0)
(0.0489634 0.000559722 0)
(0.0475929 0.000380432 0)
(0.0465311 0.000244753 0)
(0.0457447 0.00015261 0)
(0.0450619 8.77806e-05 0)
(0.0446885 5.50451e-05 0)
(0.044116 3.64948e-05 0)
(0.00711062 -0.0173968 0)
(0.0146239 -0.00500361 0)
(0.0137912 -0.000452578 0)
(-0.0259976 0.0223116 0)
(-0.0653781 0.0374634 0)
(-0.0961128 0.0333687 0)
(-0.112585 0.0226264 0)
(-0.127789 0.0152277 0)
(-0.131629 0.00567632 0)
(-0.130667 -0.00215538 0)
(-0.123181 -0.00981994 0)
(-0.108612 -0.0148711 0)
(-0.0956225 -0.0195269 0)
(-0.0737741 -0.0224182 0)
(-0.0558003 -0.0241789 0)
(-0.0314577 -0.0257778 0)
(-0.00978149 -0.0245191 0)
(0.0121602 -0.0220433 0)
(0.030642 -0.0184107 0)
(0.0458448 -0.0146906 0)
(0.0578158 -0.0114283 0)
(0.0674078 -0.00877532 0)
(0.0750372 -0.00659171 0)
(0.0812302 -0.00470539 0)
(0.0861139 -0.0029974 0)
(0.0899806 -0.0014492 0)
(0.0927274 -6.53211e-05 0)
(0.0944417 0.00102311 0)
(0.0951024 0.00178228 0)
(0.0950941 0.0021768 0)
(0.0946126 0.00228121 0)
(0.0940021 0.0021374 0)
(0.0933651 0.00190145 0)
(0.0927951 0.00158441 0)
(0.0923537 0.00132197 0)
(0.0919058 0.00103949 0)
(0.0916547 0.000868532 0)
(0.0912294 0.000661417 0)
(0.091113 0.000583333 0)
(0.0906342 0.000434523 0)
(0.00255922 -0.0164309 0)
(-0.0137954 0.00274654 0)
(-0.0293653 0.0352721 0)
(-0.0454576 0.0567522 0)
(-0.0677247 0.0634217 0)
(-0.0799171 0.0494958 0)
(-0.0917279 0.034624 0)
(-0.100342 0.0222077 0)
(-0.102156 0.00805547 0)
(-0.0976525 -0.00529805 0)
(-0.0890808 -0.0168483 0)
(-0.0745841 -0.0249343 0)
(-0.0608235 -0.0299956 0)
(-0.0444188 -0.0352046 0)
(-0.027644 -0.0381981 0)
(-0.00935158 -0.0407082 0)
(0.00903359 -0.039367 0)
(0.0272832 -0.0355348 0)
(0.0434409 -0.029378 0)
(0.0565405 -0.0230985 0)
(0.0663264 -0.0178771 0)
(0.0740695 -0.0138101 0)
(0.0803668 -0.010564 0)
(0.0855415 -0.00793675 0)
(0.0896329 -0.00571461 0)
(0.0932662 -0.00369612 0)
(0.096555 -0.00175279 0)
(0.0995385 -3.10763e-05 0)
(0.101741 0.00129436 0)
(0.103145 0.00202026 0)
(0.10373 0.00225766 0)
(0.103915 0.00208343 0)
(0.103865 0.00177986 0)
(0.103828 0.00138482 0)
(0.103833 0.0010942 0)
(0.103903 0.000808277 0)
(0.104027 0.000667438 0)
(0.104141 0.000516828 0)
(0.104245 0.000477265 0)
(0.104327 0.000408598 0)
(0.00479067 -0.00842284 0)
(-0.012653 0.0203583 0)
(-0.0168479 0.0271202 0)
(-0.0350742 0.0547865 0)
(-0.0492045 0.0620792 0)
(-0.0552536 0.0502048 0)
(-0.0625385 0.0367384 0)
(-0.0661753 0.022743 0)
(-0.0649989 0.00529774 0)
(-0.0581488 -0.0114113 0)
(-0.0477337 -0.0262072 0)
(-0.0339459 -0.0356438 0)
(-0.0204968 -0.0411265 0)
(-0.00621735 -0.045916 0)
(0.00659445 -0.0494224 0)
(0.0206755 -0.0522509 0)
(0.0339664 -0.051304 0)
(0.046172 -0.0470151 0)
(0.0575174 -0.039576 0)
(0.067897 -0.0309402 0)
(0.0754632 -0.0237261 0)
(0.0807372 -0.0185883 0)
(0.0852691 -0.0145342 0)
(0.0895306 -0.0110602 0)
(0.0926366 -0.00832927 0)
(0.094753 -0.00631254 0)
(0.0965494 -0.0045206 0)
(0.0988396 -0.00267016 0)
(0.10135 -0.00079941 0)
(0.103765 0.000686363 0)
(0.105483 0.00162748 0)
(0.106536 0.00192326 0)
(0.106915 0.00185292 0)
(0.10701 0.00150249 0)
(0.106899 0.00117361 0)
(0.106861 0.000827133 0)
(0.106811 0.000629601 0)
(0.10691 0.000465866 0)
(0.106938 0.00040397 0)
(0.107113 0.00036257 0)
(0.0120771 -0.0136911 0)
(-0.01366 0.0158497 0)
(-0.0192357 0.044814 0)
(-0.0178896 0.0710951 0)
(-0.0184632 0.0768562 0)
(-0.0165975 0.0628644 0)
(-0.0222415 0.0451411 0)
(-0.0215869 0.0259317 0)
(-0.0185156 0.00448601 0)
(-0.0115188 -0.0172002 0)
(-0.00308296 -0.034253 0)
(0.00699625 -0.0450392 0)
(0.0172449 -0.0503033 0)
(0.0278035 -0.0539256 0)
(0.0387315 -0.0567441 0)
(0.0493473 -0.0597995 0)
(0.0593761 -0.0584272 0)
(0.0674763 -0.0526737 0)
(0.0721671 -0.0451433 0)
(0.0771325 -0.0359778 0)
(0.0825349 -0.0269373 0)
(0.0858658 -0.0207772 0)
(0.0878382 -0.0169092 0)
(0.0906329 -0.0132638 0)
(0.0937639 -0.00949863 0)
(0.0958683 -0.00657161 0)
(0.0965022 -0.00475327 0)
(0.0968948 -0.0035237 0)
(0.097846 -0.00224604 0)
(0.0997119 -0.000918327 0)
(0.101907 0.000297884 0)
(0.104073 0.0010882 0)
(0.105679 0.00149288 0)
(0.106769 0.00145706 0)
(0.107292 0.00125702 0)
(0.107557 0.000922216 0)
(0.107595 0.000666929 0)
(0.107651 0.000453938 0)
(0.107623 0.000349595 0)
(0.107697 0.000288208 0)
(0.00281491 -0.00461751 0)
(-0.0162623 0.048128 0)
(0.00498834 0.0347562 0)
(0.00828379 0.0599577 0)
(0.0137215 0.0636981 0)
(0.019359 0.0517185 0)
(0.0208609 0.0370181 0)
(0.0258645 0.0188637 0)
(0.0307856 -0.00155924 0)
(0.0370224 -0.0226974 0)
(0.0426122 -0.0396356 0)
(0.0469418 -0.0500884 0)
(0.051076 -0.0560351 0)
(0.0556039 -0.0601744 0)
(0.0633199 -0.0639258 0)
(0.0715884 -0.066391 0)
(0.0772346 -0.0647756 0)
(0.0831724 -0.0563115 0)
(0.0857649 -0.0464072 0)
(0.0848657 -0.0382714 0)
(0.0863437 -0.029739 0)
(0.0893567 -0.0221051 0)
(0.090604 -0.0177109 0)
(0.0911831 -0.0151188 0)
(0.0929093 -0.0119297 0)
(0.09542 -0.00815334 0)
(0.0968477 -0.00512835 0)
(0.0968816 -0.00350093 0)
(0.0962903 -0.00271432 0)
(0.0963685 -0.00216287 0)
(0.0974032 -0.00144651 0)
(0.0993498 -0.000744391 0)
(0.101545 -7.01099e-05 0)
(0.103677 0.000317662 0)
(0.105322 0.000560908 0)
(0.106514 0.000560357 0)
(0.107205 0.000520062 0)
(0.107603 0.000413764 0)
(0.107763 0.000339106 0)
(0.107831 0.00028969 0)
(-0.0599522 -0.00717672 0)
(-0.00553333 0.0114649 0)
(-0.0040673 0.0205606 0)
(0.0336116 0.0597737 0)
(0.0522353 0.0692459 0)
(0.0660611 0.060207 0)
(0.0712989 0.0435189 0)
(0.0763322 0.0217289 0)
(0.08033 -0.00178468 0)
(0.0840695 -0.0231406 0)
(0.0845505 -0.0391036 0)
(0.0845551 -0.0501262 0)
(0.0842152 -0.0565328 0)
(0.0867086 -0.0621678 0)
(0.0905633 -0.0681028 0)
(0.0949154 -0.0699797 0)
(0.0955234 -0.0671034 0)
(0.0939918 -0.0583721 0)
(0.0944014 -0.0455447 0)
(0.0921588 -0.0358794 0)
(0.0891358 -0.029851 0)
(0.0897305 -0.0237066 0)
(0.0918681 -0.0181248 0)
(0.0928271 -0.0147512 0)
(0.0930909 -0.0123918 0)
(0.0943331 -0.00935973 0)
(0.0961617 -0.00584783 0)
(0.0974956 -0.00318566 0)
(0.0976219 -0.00193325 0)
(0.0972151 -0.00177828 0)
(0.0969451 -0.00188958 0)
(0.0974819 -0.00191315 0)
(0.0987101 -0.00160451 0)
(0.100498 -0.00121428 0)
(0.102409 -0.000733646 0)
(0.104191 -0.000393028 0)
(0.105629 -8.01717e-05 0)
(0.10664 7.9399e-05 0)
(0.107272 0.000203538 0)
(0.10768 0.000239858 0)
(0.103758 0.040544 0)
(0.0733021 0.0174966 0)
(0.0481769 0.00825574 0)
(0.0446163 0.0227409 0)
(0.0657191 0.0387675 0)
(0.0839527 0.0392381 0)
(0.097057 0.0298603 0)
(0.106382 0.0134327 0)
(0.112901 -0.00603673 0)
(0.114896 -0.0252173 0)
(0.113831 -0.0403575 0)
(0.113156 -0.0512367 0)
(0.113075 -0.0590815 0)
(0.115492 -0.0644105 0)
(0.118029 -0.0688861 0)
(0.115683 -0.070377 0)
(0.111309 -0.065511 0)
(0.104901 -0.0564196 0)
(0.100018 -0.0449026 0)
(0.0980026 -0.0338201 0)
(0.0955112 -0.0272148 0)
(0.0935111 -0.0235169 0)
(0.0936357 -0.0197248 0)
(0.0947582 -0.0159043 0)
(0.095305 -0.0128797 0)
(0.0956889 -0.0102343 0)
(0.0966102 -0.00732228 0)
(0.0982395 -0.00449885 0)
(0.099813 -0.00244505 0)
(0.100968 -0.00158501 0)
(0.101416 -0.00155219 0)
(0.101527 -0.00197955 0)
(0.101504 -0.00227539 0)
(0.101766 -0.00242292 0)
(0.102365 -0.00217597 0)
(0.103327 -0.00182591 0)
(0.104432 -0.00130131 0)
(0.105539 -0.000814677 0)
(0.106327 -0.000443427 0)
(0.107143 -2.47631e-05 0)
(0.139951 0.0442835 0)
(0.132288 0.0402333 0)
(0.125434 0.0391943 0)
(0.108804 0.0407115 0)
(0.107091 0.0387904 0)
(0.113609 0.0335749 0)
(0.12274 0.0234368 0)
(0.131415 0.008798 0)
(0.138441 -0.00807817 0)
(0.141803 -0.0246147 0)
(0.141264 -0.0395533 0)
(0.141331 -0.050949 0)
(0.142763 -0.0580633 0)
(0.140485 -0.0641688 0)
(0.136459 -0.0669232 0)
(0.128474 -0.0649562 0)
(0.116082 -0.0592073 0)
(0.106424 -0.05008 0)
(0.100561 -0.0408449 0)
(0.0985466 -0.0331378 0)
(0.0992394 -0.0269981 0)
(0.100176 -0.0223367 0)
(0.100173 -0.0187657 0)
(0.0996603 -0.0157741 0)
(0.099206 -0.0130063 0)
(0.0992949 -0.0103005 0)
(0.0998112 -0.00770455 0)